LAMMPS data file (fixed type mapping)

806 atoms
5 atom types

0.000000 20.000000 xlo xhi
0.000000 20.000000 ylo yhi
0.000000 20.000000 zlo zhi

Masses

1 28.0850  # Si
2 15.9990  # O
3 1.0080  # H
4 26.9815  # Al
5 22.9898  # Na

Atoms # full

1 1 1 0.0000 12.889767 4.431948 3.667872
2 1 1 0.0000 13.916659 0.724215 17.521380
3 1 1 0.0000 4.696360 5.420205 11.343198
4 1 1 0.0000 9.431034 10.888599 0.639731
5 1 1 0.0000 19.039403 18.606810 17.159628
6 1 1 0.0000 10.107128 3.075943 10.536310
7 1 1 0.0000 13.143729 6.175208 8.986905
8 1 1 0.0000 3.305255 0.358841 7.086418
9 1 1 0.0000 19.408425 15.938103 3.093294
10 1 1 0.0000 12.778239 7.733610 2.668291
11 1 1 0.0000 13.565996 16.674743 10.269569
12 1 1 0.0000 6.597788 8.634457 14.650689
13 1 1 0.0000 2.887038 16.922555 15.952101
14 1 1 0.0000 3.077598 18.490139 10.652523
15 1 1 0.0000 4.501907 11.095506 6.499042
16 1 1 0.0000 7.150912 18.255081 4.346132
17 1 1 0.0000 3.958141 3.098542 17.381326
18 1 1 0.0000 7.213012 15.681963 17.273577
19 1 1 0.0000 9.553953 10.164960 9.571040
20 1 1 0.0000 11.944759 17.855214 14.760447
21 1 1 0.0000 19.337234 3.437959 11.738057
22 1 1 0.0000 16.922751 9.702246 9.089423
23 1 1 0.0000 1.821719 17.307295 6.847126
24 1 1 0.0000 5.267734 11.333177 2.869956
25 1 1 0.0000 11.519080 13.937447 19.870382
26 1 1 0.0000 2.160216 2.282725 0.332734
27 1 1 0.0000 15.170896 7.313659 19.631238
28 1 1 0.0000 15.196497 6.613316 16.754331
29 1 1 0.0000 18.056858 6.565806 0.312914
30 1 1 0.0000 17.074896 9.269476 1.015515
31 1 1 0.0000 12.809761 1.329315 13.738612
32 1 1 0.0000 10.892587 2.140570 15.844328
33 1 1 0.0000 18.301346 1.298540 3.271784
34 1 1 0.0000 16.820266 0.076758 1.017593
35 1 1 0.0000 19.149827 17.223654 10.342213
36 1 1 0.0000 18.667687 19.694925 8.783978
37 1 1 0.0000 16.964862 12.796873 16.502622
38 1 1 0.0000 17.210988 15.260615 14.878698
39 1 1 0.0000 17.388490 0.888913 18.753118
40 1 1 0.0000 20.298682 0.398510 18.512237
41 1 1 0.0000 3.200465 -0.066454 12.060835
42 1 1 0.0000 1.421657 2.007352 13.202282
43 1 1 0.0000 2.913252 10.422721 20.239027
44 1 1 0.0000 0.391409 9.962917 18.756927
45 1 1 0.0000 3.234556 12.839857 16.216291
46 1 1 0.0000 1.471273 13.118472 13.853889
47 1 1 0.0000 13.183288 15.100402 4.877121
48 1 1 0.0000 15.340655 17.054054 4.332376
49 1 1 0.0000 12.374786 18.655202 3.168557
50 1 1 0.0000 13.522719 18.818184 0.443961
51 1 1 0.0000 11.488056 11.919922 14.931358
52 1 1 0.0000 13.526564 11.445574 12.836791
53 1 1 0.0000 1.656556 5.714922 1.488289
54 1 1 0.0000 -0.302970 3.610194 0.782517
55 1 1 0.0000 14.086351 0.358053 9.543675
56 1 1 0.0000 16.040445 0.513440 7.324417
57 1 1 0.0000 8.999691 5.621341 16.303526
58 1 1 0.0000 9.034660 8.247983 17.670005
59 1 1 0.0000 3.482562 19.655965 5.658345
60 1 1 0.0000 3.796970 18.042317 3.195618
61 1 1 0.0000 6.717959 20.401042 8.760226
62 1 1 0.0000 6.151794 17.612436 7.941160
63 1 1 0.0000 17.539963 8.372771 5.537874
64 1 1 0.0000 20.186890 7.055555 5.375228
65 1 1 0.0000 8.197935 5.305652 2.569304
66 1 1 0.0000 7.759254 2.915532 0.877377
67 1 1 0.0000 18.452642 4.885600 15.939942
68 1 1 0.0000 19.406808 2.226544 15.052967
69 1 1 0.0000 17.563667 10.673319 18.697606
70 1 1 0.0000 19.226220 8.758678 20.226593
71 1 1 0.0000 2.059651 0.833281 9.255070
72 1 1 0.0000 -0.199375 2.732798 9.017649
73 1 1 0.0000 1.338364 9.331178 4.566967
74 1 1 0.0000 -0.184508 11.870258 4.526142
75 1 1 0.0000 9.555053 12.308989 5.788138
76 1 1 0.0000 10.459912 9.935762 4.266050
77 1 1 0.0000 1.003209 15.756418 18.617123
78 1 1 0.0000 0.666203 18.697734 18.564027
79 1 2 0.0000 13.584569 3.589025 4.896171
80 1 2 0.0000 13.245853 6.015699 3.907090
81 1 2 0.0000 13.532219 3.970823 2.228851
82 1 2 0.0000 8.980802 2.585591 3.439027
83 1 2 0.0000 11.492884 1.502533 4.391900
84 1 2 0.0000 11.299587 2.283614 1.684006
85 1 2 0.0000 11.289517 4.217907 3.655598
86 1 2 0.0000 12.988821 -0.629985 17.606484
87 1 2 0.0000 14.779767 0.631480 16.128995
88 1 2 0.0000 12.964956 2.060370 17.449882
89 1 2 0.0000 15.417660 1.014212 21.571604
90 1 2 0.0000 12.990321 -0.212659 20.574433
91 1 2 0.0000 13.336974 2.569697 20.230236
92 1 2 0.0000 14.913574 0.819706 18.787795
93 1 2 0.0000 5.433227 4.617856 10.112244
94 1 2 0.0000 4.616578 4.385870 12.614447
95 1 2 0.0000 5.594599 6.719579 11.791477
96 1 2 0.0000 1.423960 7.368477 9.284789
97 1 2 0.0000 3.999841 6.506114 8.278458
98 1 2 0.0000 3.930847 8.484801 10.293447
99 1 2 0.0000 3.212318 5.891666 10.916453
100 1 2 0.0000 8.927299 10.071456 1.974090
101 1 2 0.0000 9.305145 9.860070 -0.632498
102 1 2 0.0000 8.451862 12.176688 0.360070
103 1 2 0.0000 12.981958 12.875739 2.117441
104 1 2 0.0000 10.628923 11.973283 3.545844
105 1 2 0.0000 10.324397 13.959969 1.560778
106 1 2 0.0000 10.959874 11.379550 0.808198
107 1 2 0.0000 20.568973 18.343571 16.618233
108 1 2 0.0000 18.874970 17.776137 18.565058
109 1 2 0.0000 18.816024 20.202692 17.474938
110 1 2 0.0000 16.734420 18.169239 13.521360
111 1 2 0.0000 19.500396 18.949680 13.884434
112 1 2 0.0000 17.479432 20.587340 14.986214
113 1 2 0.0000 17.951196 18.096157 16.081758
114 1 2 0.0000 10.644425 1.536815 10.325634
115 1 2 0.0000 10.879800 3.681416 11.851099
116 1 2 0.0000 10.502414 3.997739 9.236233
117 1 2 0.0000 5.846092 2.607236 9.931905
118 1 2 0.0000 8.050740 1.028823 8.912260
119 1 2 0.0000 7.874166 3.746143 8.160505
120 1 2 0.0000 8.509768 3.101310 10.769905
121 1 2 0.0000 12.688228 7.705623 8.596602
122 1 2 0.0000 12.683277 5.203449 7.747567
123 1 2 0.0000 14.777159 6.088654 9.130347
124 1 2 0.0000 11.951704 5.938707 13.141969
125 1 2 0.0000 12.668602 8.246442 11.544485
126 1 2 0.0000 14.613947 6.243292 11.972463
127 1 2 0.0000 12.439740 5.697133 10.358988
128 1 2 0.0000 4.173858 -0.036867 8.424675
129 1 2 0.0000 2.450528 -0.973399 6.654139
130 1 2 0.0000 2.243438 1.561963 7.434561
131 1 2 0.0000 6.237418 2.518134 4.745204
132 1 2 0.0000 6.058624 2.147424 7.612631
133 1 2 0.0000 3.971736 3.522848 6.296102
134 1 2 0.0000 4.279268 0.809682 5.880265
135 1 2 0.0000 19.844450 17.295460 3.911492
136 1 2 0.0000 18.740882 16.422749 1.674917
137 1 2 0.0000 20.733489 15.029155 2.755389
138 1 2 0.0000 17.582004 13.574533 6.226844
139 1 2 0.0000 19.604060 15.641662 6.399473
140 1 2 0.0000 20.196855 13.290437 4.950169
141 1 2 0.0000 18.342452 15.071755 3.941769
142 1 2 0.0000 14.347569 7.253318 2.576064
143 1 2 0.0000 12.555342 8.370748 4.163839
144 1 2 0.0000 12.477605 8.905885 1.558538
145 1 2 0.0000 10.725737 4.371738 0.872054
146 1 2 0.0000 13.433033 5.322399 0.474147
147 1 2 0.0000 11.288277 7.023870 -0.222387
148 1 2 0.0000 11.779730 6.485257 2.441659
149 1 2 0.0000 14.645866 16.536890 9.037959
150 1 2 0.0000 13.850593 15.432157 11.302658
151 1 2 0.0000 13.805424 18.083182 11.078974
152 1 2 0.0000 9.910850 17.579030 8.133315
153 1 2 0.0000 12.666980 18.066541 7.386578
154 1 2 0.0000 11.649116 19.334963 9.696384
155 1 2 0.0000 12.050521 16.602345 9.717428
156 1 2 0.0000 6.246195 10.152863 14.128375
157 1 2 0.0000 8.027937 8.208226 13.968568
158 1 2 0.0000 6.781555 8.624160 16.282339
159 1 2 0.0000 2.764662 6.661754 14.254456
160 1 2 0.0000 3.377744 9.464054 14.657913
161 1 2 0.0000 4.141192 7.614061 16.651606
162 1 2 0.0000 5.442558 7.593886 14.215460
163 1 2 0.0000 1.467924 17.538547 15.396532
164 1 2 0.0000 2.516703 15.634172 16.898257
165 1 2 0.0000 3.805661 16.393958 14.697957
166 1 2 0.0000 5.026891 20.517454 17.065267
167 1 2 0.0000 2.932813 20.136470 15.100267
168 1 2 0.0000 5.380129 18.770244 14.747825
169 1 2 0.0000 3.697792 18.025705 16.807965
170 1 2 0.0000 2.227947 17.949096 11.951504
171 1 2 0.0000 2.023283 19.296055 9.687532
172 1 2 0.0000 4.242512 19.542076 11.134773
173 1 2 0.0000 5.474655 15.022533 9.667005
174 1 2 0.0000 4.332406 15.830008 12.203693
175 1 2 0.0000 6.243207 17.516486 10.985179
176 1 2 0.0000 3.740704 17.259333 9.844950
177 1 2 0.0000 5.598972 11.703870 7.561271
178 1 2 0.0000 3.031907 11.679213 6.935706
179 1 2 0.0000 4.833617 11.619324 4.978600
180 1 2 0.0000 5.750637 6.959663 6.221749
181 1 2 0.0000 7.289075 9.323282 6.883602
182 1 2 0.0000 6.107408 9.154333 4.323278
183 1 2 0.0000 4.493680 9.481520 6.540844
184 1 2 0.0000 5.794848 17.616596 3.671289
185 1 2 0.0000 6.681769 19.079654 5.684890
186 1 2 0.0000 8.171928 17.055979 4.810720
187 1 2 0.0000 9.225246 19.783063 0.867077
188 1 2 0.0000 7.311462 17.619511 1.086187
189 1 2 0.0000 9.763963 17.398386 2.470558
190 1 2 0.0000 7.894795 19.248813 3.313708
191 1 2 0.0000 4.573892 4.299245 18.320021
192 1 2 0.0000 2.323313 3.215141 17.458993
193 1 2 0.0000 4.416240 3.308730 15.818596
194 1 2 0.0000 6.445835 -0.259748 18.510341
195 1 2 0.0000 7.014484 2.579748 18.584067
196 1 2 0.0000 6.491247 1.371787 16.084628
197 1 2 0.0000 4.437713 1.650551 17.910569
198 1 2 0.0000 7.716669 16.051948 18.793915
199 1 2 0.0000 6.449057 17.008060 16.681863
200 1 2 0.0000 8.503641 15.358372 16.311430
201 1 2 0.0000 5.598593 11.703689 17.828918
202 1 2 0.0000 7.643108 13.103909 19.329210
203 1 2 0.0000 8.112944 12.549002 16.599471
204 1 2 0.0000 6.204252 14.421474 17.291940
205 1 2 0.0000 8.903575 9.974295 11.068585
206 1 2 0.0000 9.888863 8.665322 8.995531
207 1 2 0.0000 8.465129 10.871686 8.565475
208 1 2 0.0000 12.304323 13.444356 10.220996
209 1 2 0.0000 9.870867 12.754345 11.632985
210 1 2 0.0000 9.699680 13.420553 8.893093
211 1 2 0.0000 10.903474 11.048774 9.637615
212 1 2 0.0000 12.167985 16.370751 14.090724
213 1 2 0.0000 12.174491 17.695056 16.377191
214 1 2 0.0000 13.061423 18.911677 14.183293
215 1 2 0.0000 8.393088 19.222552 12.697092
216 1 2 0.0000 10.415659 17.327278 11.855261
217 1 2 0.0000 11.187145 20.002562 12.332556
218 1 2 0.0000 10.455644 18.403366 14.462403
219 1 2 0.0000 17.798867 2.908731 11.973285
220 1 2 0.0000 19.652789 4.541629 12.910501
221 1 2 0.0000 20.396441 2.194095 11.902499
222 1 2 0.0000 19.420473 4.011404 7.447877
223 1 2 0.0000 17.787611 2.236470 9.052529
224 1 2 0.0000 20.590187 1.882637 9.075198
225 1 2 0.0000 19.496990 4.114312 10.280733
226 1 2 0.0000 16.724858 8.290151 9.907232
227 1 2 0.0000 16.597213 9.395665 7.510713
228 1 2 0.0000 15.852012 10.824569 9.628003
229 1 2 0.0000 20.602136 11.202207 10.808042
230 1 2 0.0000 18.614195 9.424256 11.938757
231 1 2 0.0000 17.841851 12.054760 11.257526
232 1 2 0.0000 18.431967 10.253295 9.248731
233 1 2 0.0000 0.489220 18.231791 7.114971
234 1 2 0.0000 2.654869 18.005637 5.618116
235 1 2 0.0000 2.781419 17.295908 8.179419
236 1 2 0.0000 0.163271 13.311697 7.008885
237 1 2 0.0000 -0.762547 15.758083 8.253712
238 1 2 0.0000 1.775265 14.750787 8.978288
239 1 2 0.0000 1.405544 15.798781 6.449694
240 1 2 0.0000 6.088410 12.423862 3.785862
241 1 2 0.0000 6.168885 9.962609 2.827991
242 1 2 0.0000 3.823694 10.979479 3.566953
243 1 2 0.0000 3.981594 13.778650 -0.462749
244 1 2 0.0000 4.599252 14.533794 2.264849
245 1 2 0.0000 2.451699 12.756007 1.809184
246 1 2 0.0000 5.039325 11.894057 1.373289
247 1 2 0.0000 12.473214 13.675178 21.182948
248 1 2 0.0000 10.183316 13.001558 20.049652
249 1 2 0.0000 11.044568 15.508542 19.818817
250 1 2 0.0000 14.414154 13.859295 16.652642
251 1 2 0.0000 14.763998 14.529094 19.449161
252 1 2 0.0000 13.042632 16.129732 17.882316
253 1 2 0.0000 12.293005 13.546184 18.508502
254 1 2 0.0000 1.297464 3.097563 1.470137
255 1 2 0.0000 1.374390 2.470108 -1.095431
256 1 2 0.0000 3.660523 2.933380 0.184796
257 1 2 0.0000 3.077414 -1.406161 2.404515
258 1 2 0.0000 2.532003 1.233387 3.466044
259 1 2 0.0000 4.794538 0.884517 1.810941
260 1 2 0.0000 2.268929 0.715614 0.705708
261 1 2 0.0000 14.739629 6.228428 20.770707
262 1 2 0.0000 14.542981 8.776867 19.994813
263 1 2 0.0000 16.795162 7.415479 19.595334
264 1 2 0.0000 14.936826 5.077323 16.284127
265 1 2 0.0000 16.814090 6.893528 16.848749
266 1 2 0.0000 14.506411 7.666313 15.726554
267 1 2 0.0000 14.538672 6.829236 18.214153
268 1 2 0.0000 19.576565 6.089989 0.668154
269 1 2 0.0000 17.642191 6.029501 -1.172976
270 1 2 0.0000 17.040923 5.936754 1.418386
271 1 2 0.0000 17.993409 10.264300 1.917987
272 1 2 0.0000 16.010896 8.473555 1.984253
273 1 2 0.0000 16.274753 10.092242 -0.135212
274 1 2 0.0000 18.034065 8.191051 0.289271
275 1 2 0.0000 13.006278 -0.235154 13.319176
276 1 2 0.0000 14.260970 2.077423 13.780650
277 1 2 0.0000 11.860396 2.051565 12.630930
278 1 2 0.0000 9.884894 1.043737 16.499542
279 1 2 0.0000 10.121705 2.940329 14.631823
280 1 2 0.0000 11.419102 3.195620 16.962807
281 1 2 0.0000 12.175380 1.370327 15.234733
282 1 2 0.0000 19.931786 1.282627 3.331133
283 1 2 0.0000 17.690650 1.005060 4.757839
284 1 2 0.0000 17.811600 2.766099 2.765506
285 1 2 0.0000 17.624476 -0.485175 -0.280588
286 1 2 0.0000 16.297622 1.607338 0.720594
287 1 2 0.0000 15.560809 -0.881425 1.387727
288 1 2 0.0000 17.824951 0.099675 2.282709
289 1 2 0.0000 17.935152 16.202566 10.721752
290 1 2 0.0000 20.160099 17.379502 11.615988
291 1 2 0.0000 19.967911 16.613404 9.074052
292 1 2 0.0000 17.200853 19.983579 8.141428
293 1 2 0.0000 19.636200 18.997890 7.652534
294 1 2 0.0000 19.347591 21.064993 9.333514
295 1 2 0.0000 18.499727 18.680560 10.030289
296 1 2 0.0000 18.270512 12.075918 17.164143
297 1 2 0.0000 15.945804 11.664092 15.914600
298 1 2 0.0000 16.206353 13.661693 17.654424
299 1 2 0.0000 18.643513 16.023526 14.761937
300 1 2 0.0000 16.311018 15.959060 16.064559
301 1 2 0.0000 16.405966 15.304541 13.467543
302 1 2 0.0000 17.474865 13.713002 15.260403
303 1 2 0.0000 16.736029 2.343949 18.407764
304 1 2 0.0000 16.676448 0.265011 20.083976
305 1 2 0.0000 17.141315 -0.107297 17.489643
306 1 2 0.0000 21.269328 1.535672 17.869974
307 1 2 0.0000 19.873607 -0.682799 17.348569
308 1 2 0.0000 21.028351 -0.367110 19.746236
309 1 2 0.0000 18.965102 1.112417 19.079985
310 1 2 0.0000 4.559358 0.326972 11.247980
311 1 2 0.0000 2.446898 -1.306645 11.311499
312 1 2 0.0000 3.607180 -0.513988 13.572190
313 1 2 0.0000 1.866773 3.572247 13.174507
314 1 2 0.0000 1.823105 1.347107 14.653818
315 1 2 0.0000 -0.173755 1.846228 12.937621
316 1 2 0.0000 2.208800 1.221252 12.030579
317 1 2 0.0000 3.333608 9.499226 21.516746
318 1 2 0.0000 3.277591 11.985661 20.542206
319 1 2 0.0000 3.743604 9.916826 18.933468
320 1 2 0.0000 -0.534306 8.669249 19.099369
321 1 2 0.0000 1.372204 9.615719 17.483531
322 1 2 0.0000 -0.521127 11.264926 18.420183
323 1 2 0.0000 1.303422 10.306349 20.045618
324 1 2 0.0000 4.459623 11.762608 16.245445
325 1 2 0.0000 2.480399 12.859516 17.664843
326 1 2 0.0000 3.844855 14.316255 15.903749
327 1 2 0.0000 1.807038 12.309232 12.482691
328 1 2 0.0000 2.083171 14.641726 13.757342
329 1 2 0.0000 -0.130289 13.176129 14.124113
330 1 2 0.0000 2.164409 12.350332 15.094840
331 1 2 0.0000 11.614235 15.466957 4.620574
332 1 2 0.0000 13.333788 14.253117 6.265249
333 1 2 0.0000 13.719236 14.199053 3.632040
334 1 2 0.0000 14.997574 18.471036 3.609707
335 1 2 0.0000 15.841364 15.968110 3.203635
336 1 2 0.0000 16.482137 17.238940 5.474385
337 1 2 0.0000 14.002095 16.494792 5.043656
338 1 2 0.0000 10.762215 18.636610 3.416300
339 1 2 0.0000 13.096878 19.592075 4.294742
340 1 2 0.0000 12.939009 17.132956 3.288217
341 1 2 0.0000 12.552702 18.724933 -0.859175
342 1 2 0.0000 14.144991 17.332236 0.773775
343 1 2 0.0000 14.724177 19.886460 0.205984
344 1 2 0.0000 12.649147 19.315719 1.708781
345 1 2 0.0000 11.893894 12.036797 16.507348
346 1 2 0.0000 10.106907 11.061853 14.777786
347 1 2 0.0000 11.262878 13.418817 14.337636
348 1 2 0.0000 15.108631 11.459440 13.217142
349 1 2 0.0000 13.083322 12.925659 12.273829
350 1 2 0.0000 13.199981 10.304913 11.726124
351 1 2 0.0000 12.673934 11.111609 14.167928
352 1 2 0.0000 1.708039 7.136566 0.689299
353 1 2 0.0000 3.174960 5.192646 1.786815
354 1 2 0.0000 0.873384 5.936372 2.898076
355 1 2 0.0000 -1.469434 3.912242 -0.311065
356 1 2 0.0000 -0.893235 3.854248 2.297795
357 1 2 0.0000 0.256700 2.091124 0.639198
358 1 2 0.0000 0.926618 4.626550 0.526448
359 1 2 0.0000 14.564547 0.151886 11.089939
360 1 2 0.0000 12.757235 -0.544677 9.250470
361 1 2 0.0000 13.734821 1.930385 9.311089
362 1 2 0.0000 17.635840 0.560005 7.641181
363 1 2 0.0000 15.474392 2.044453 7.125362
364 1 2 0.0000 15.731142 -0.373155 5.997908
365 1 2 0.0000 15.280863 -0.170165 8.575879
366 1 2 0.0000 9.723808 5.400754 14.858153
367 1 2 0.0000 7.571007 4.830502 16.333105
368 1 2 0.0000 9.969899 5.029983 17.469240
369 1 2 0.0000 9.923898 9.470931 17.068800
370 1 2 0.0000 9.890924 7.467237 18.836748
371 1 2 0.0000 7.627642 8.788875 18.277526
372 1 2 0.0000 8.702716 7.210110 16.477080
373 1 2 0.0000 4.237964 21.090471 5.841828
374 1 2 0.0000 3.534845 18.819743 7.060286
375 1 2 0.0000 1.931027 19.931366 5.249943
376 1 2 0.0000 4.602520 18.648095 1.918153
377 1 2 0.0000 2.183942 18.293689 2.998151
378 1 2 0.0000 4.096451 16.455550 3.379540
379 1 2 0.0000 4.289206 18.806238 4.531495
380 1 2 0.0000 8.134859 21.125874 8.400892
381 1 2 0.0000 6.264068 20.795514 10.278717
382 1 2 0.0000 5.587452 20.913528 7.707035
383 1 2 0.0000 7.190154 16.817597 6.972742
384 1 2 0.0000 4.951395 18.275592 7.033797
385 1 2 0.0000 5.520549 16.621298 9.063889
386 1 2 0.0000 6.949738 18.793107 8.702566
387 1 2 0.0000 17.356898 9.963603 5.225066
388 1 2 0.0000 16.620860 7.951705 6.820602
389 1 2 0.0000 17.065947 7.525755 4.231057
390 1 2 0.0000 21.474011 7.873501 4.807710
391 1 2 0.0000 19.513801 6.176921 4.159089
392 1 2 0.0000 20.607735 6.078092 6.603561
393 1 2 0.0000 19.097669 8.114905 5.924603
394 1 2 0.0000 9.505580 5.439610 3.535858
395 1 2 0.0000 6.876744 5.872801 3.344054
396 1 2 0.0000 8.452909 6.182171 1.221490
397 1 2 0.0000 8.909374 1.769810 0.766302
398 1 2 0.0000 7.900781 3.960921 -0.384040
399 1 2 0.0000 6.273779 2.256377 0.892399
400 1 2 0.0000 7.964494 3.727076 2.259300
401 1 2 0.0000 19.257622 6.252694 15.558936
402 1 2 0.0000 17.924858 4.966137 17.483444
403 1 2 0.0000 17.177701 4.734260 14.939181
404 1 2 0.0000 20.665351 2.109198 14.028226
405 1 2 0.0000 17.999407 2.164834 14.204760
406 1 2 0.0000 19.441850 1.040620 16.163688
407 1 2 0.0000 19.494445 3.643030 15.825187
408 1 2 0.0000 17.688404 12.284171 18.924990
409 1 2 0.0000 15.993635 10.259281 18.521499
410 1 2 0.0000 18.383884 10.271144 17.350239
411 1 2 0.0000 20.410300 9.300997 21.202113
412 1 2 0.0000 19.859221 8.361361 18.761844
413 1 2 0.0000 18.472872 7.473604 20.876513
414 1 2 0.0000 18.136097 9.934466 20.027614
415 1 2 0.0000 3.588673 1.350089 9.494044
416 1 2 0.0000 2.054154 -0.404959 8.190096
417 1 2 0.0000 1.451475 0.326514 10.677465
418 1 2 0.0000 0.034772 4.320096 9.288675
419 1 2 0.0000 -0.756587 2.017049 10.389239
420 1 2 0.0000 -1.246677 2.493922 7.798041
421 1 2 0.0000 1.211876 2.060627 8.609004
422 1 2 0.0000 2.762947 9.202133 5.351835
423 1 2 0.0000 1.416231 8.533133 3.144117
424 1 2 0.0000 0.171025 8.674894 5.492446
425 1 2 0.0000 0.304122 13.131679 5.430495
426 1 2 0.0000 -1.336681 11.024327 5.339123
427 1 2 0.0000 -0.764349 12.366537 3.091277
428 1 2 0.0000 1.081725 10.905050 4.251431
429 1 2 0.0000 8.181144 12.286607 6.667901
430 1 2 0.0000 9.691005 13.738811 5.010600
431 1 2 0.0000 10.821474 12.116593 6.792658
432 1 2 0.0000 9.677829 8.517332 4.421607
433 1 2 0.0000 11.757145 9.962158 5.276264
434 1 2 0.0000 10.941497 10.175271 2.732408
435 1 2 0.0000 9.452950 11.132680 4.670831
436 1 2 0.0000 2.302510 15.058002 19.314360
437 1 2 0.0000 0.636366 14.979833 17.227957
438 1 2 0.0000 -0.256979 15.655553 19.642624
439 1 2 0.0000 1.699153 19.654193 19.380112
440 1 2 0.0000 -0.667060 18.416599 19.484577
441 1 2 0.0000 0.235873 19.371424 17.148999
442 1 2 0.0000 1.396110 17.290720 18.251001
443 1 3 0.0000 13.032937 2.829697 5.126963
444 1 3 0.0000 12.435901 6.520410 3.964796
445 1 3 0.0000 12.921243 3.366932 1.772025
446 1 3 0.0000 8.575307 2.213781 2.655878
447 1 3 0.0000 10.906998 1.219068 5.094160
448 1 3 0.0000 11.497745 1.354096 1.555749
449 1 3 0.0000 12.889635 -0.903048 18.528298
450 1 3 0.0000 15.713632 0.681503 16.327688
451 1 3 0.0000 12.931640 2.489957 18.322242
452 1 3 0.0000 15.357201 1.778585 22.144377
453 1 3 0.0000 13.300101 -0.900674 21.163887
454 1 3 0.0000 12.540416 2.585096 20.764070
455 1 3 0.0000 5.065454 4.905212 9.265892
456 1 3 0.0000 3.705319 4.279507 12.883484
457 1 3 0.0000 5.210133 7.532026 11.418942
458 1 3 0.0000 1.216789 8.302580 9.307648
459 1 3 0.0000 3.426305 6.174218 7.587310
460 1 3 0.0000 4.367785 8.990042 9.605307
461 1 3 0.0000 9.431075 10.360966 2.746447
462 1 3 0.0000 10.158005 9.767623 -1.054600
463 1 3 0.0000 8.883693 12.993170 0.665924
464 1 3 0.0000 13.169616 13.812766 2.064938
465 1 3 0.0000 11.317014 11.647085 4.126284
466 1 3 0.0000 10.005406 14.456481 2.316714
467 1 3 0.0000 20.576936 18.324832 15.651937
468 1 3 0.0000 18.143888 17.164442 18.491342
469 1 3 0.0000 18.318650 20.617044 16.748577
470 1 3 0.0000 16.109837 18.802129 13.167329
471 1 3 0.0000 19.593408 18.316167 13.172539
472 1 3 0.0000 17.877527 21.224772 14.390462
473 1 3 0.0000 9.931986 0.984892 9.976415
474 1 3 0.0000 10.235640 3.963897 12.498670
475 1 3 0.0000 9.724080 4.113995 8.664090
476 1 3 0.0000 5.302690 3.105490 9.321620
477 1 3 0.0000 7.463102 0.332277 9.206010
478 1 3 0.0000 7.813545 3.347952 7.290166
479 1 3 0.0000 12.437670 8.187894 9.395838
480 1 3 0.0000 12.106021 4.516366 8.077379
481 1 3 0.0000 15.027372 6.091502 10.070588
482 1 3 0.0000 12.509070 5.684251 13.877215
483 1 3 0.0000 11.879103 8.575063 11.975163
484 1 3 0.0000 15.070705 6.981962 12.379230
485 1 3 0.0000 5.019253 0.431542 8.418174
486 1 3 0.0000 2.668786 -1.215675 5.755389
487 1 3 0.0000 2.586676 2.411332 7.106800
488 1 3 0.0000 6.133262 3.395414 4.377071
489 1 3 0.0000 6.988019 1.963621 7.473975
490 1 3 0.0000 4.259679 4.221619 6.886464
491 1 3 0.0000 19.736769 17.155299 4.861703
492 1 3 0.0000 17.853160 16.074911 1.603909
493 1 3 0.0000 20.791228 14.283987 3.378332
494 1 3 0.0000 17.808071 12.674777 6.462052
495 1 3 0.0000 19.022412 15.911480 7.110576
496 1 3 0.0000 20.884570 13.230825 5.615912
497 1 3 0.0000 14.417401 6.462476 2.024851
498 1 3 0.0000 11.853064 7.900221 4.610488
499 1 3 0.0000 12.012543 8.525577 0.793195
500 1 3 0.0000 10.102294 4.410796 0.146944
501 1 3 0.0000 13.593867 4.383473 0.570769
502 1 3 0.0000 11.699931 6.944576 -1.084925
503 1 3 0.0000 14.244055 16.840456 8.213012
504 1 3 0.0000 13.053862 14.914043 11.406885
505 1 3 0.0000 13.138699 18.737974 10.808069
506 1 3 0.0000 9.329227 18.321580 8.295569
507 1 3 0.0000 12.329694 17.702500 6.567739
508 1 3 0.0000 11.874491 20.115373 9.186594
509 1 3 0.0000 5.289939 10.253599 14.030560
510 1 3 0.0000 7.914479 7.404204 13.463829
511 1 3 0.0000 5.979384 8.269391 16.703441
512 1 3 0.0000 2.303482 6.177932 14.939453
513 1 3 0.0000 2.723363 9.530535 13.962103
514 1 3 0.0000 3.552396 8.160765 17.175201
515 1 3 0.0000 1.537500 18.498747 15.310993
516 1 3 0.0000 2.877617 15.766069 17.773717
517 1 3 0.0000 4.501419 17.044676 14.500086
518 1 3 0.0000 5.904208 20.766790 16.775202
519 1 3 0.0000 2.616182 20.927824 15.536490
520 1 3 0.0000 5.382878 19.288560 13.940942
521 1 3 0.0000 2.583636 17.100211 12.246496
522 1 3 0.0000 2.021858 18.902165 8.816363
523 1 3 0.0000 5.106905 19.095607 11.147307
524 1 3 0.0000 6.426044 15.002486 9.564794
525 1 3 0.0000 4.094499 14.902575 12.196404
526 1 3 0.0000 6.711243 17.328210 11.800786
527 1 3 0.0000 6.302016 11.058347 7.713487
528 1 3 0.0000 2.435971 10.950941 7.104716
529 1 3 0.0000 5.277273 10.914691 4.475282
530 1 3 0.0000 5.947574 6.480509 5.417002
531 1 3 0.0000 7.588872 8.726369 7.569606
532 1 3 0.0000 7.026942 9.214996 4.057763
533 1 3 0.0000 5.883329 17.599611 2.708988
534 1 3 0.0000 6.964251 19.990364 5.614905
535 1 3 0.0000 8.890386 16.962978 4.161231
536 1 3 0.0000 10.127973 19.588679 0.615504
537 1 3 0.0000 6.966491 18.075984 0.318455
538 1 3 0.0000 9.845299 16.630007 1.902493
539 1 3 0.0000 5.394521 4.003153 18.735999
540 1 3 0.0000 1.958579 2.390245 17.776170
541 1 3 0.0000 5.147887 2.704290 15.604094
542 1 3 0.0000 6.940503 -0.823094 17.915415
543 1 3 0.0000 7.336306 2.318344 19.447134
544 1 3 0.0000 7.381538 1.684739 15.913854
545 1 3 0.0000 7.676392 15.265325 19.354044
546 1 3 0.0000 5.555970 16.777123 16.430566
547 1 3 0.0000 8.600386 14.396667 16.199940
548 1 3 0.0000 5.834268 10.922242 17.329129
549 1 3 0.0000 7.115988 12.751102 20.046466
550 1 3 0.0000 8.846183 12.060190 16.977813
551 1 3 0.0000 9.165651 10.710795 11.636938
552 1 3 0.0000 10.818224 8.606043 8.779060
553 1 3 0.0000 8.676740 11.815407 8.459281
554 1 3 0.0000 12.342454 14.258981 9.720074
555 1 3 0.0000 10.454349 12.927445 12.372153
556 1 3 0.0000 9.141351 14.114382 9.248889
557 1 3 0.0000 11.579132 16.260431 13.332289
558 1 3 0.0000 11.391044 17.985551 16.841852
559 1 3 0.0000 12.659378 19.479229 13.502917
560 1 3 0.0000 8.296287 20.048444 12.223254
561 1 3 0.0000 9.621959 16.847299 11.617681
562 1 3 0.0000 11.428610 19.942284 11.406392
563 1 3 0.0000 17.384572 2.713831 11.122101
564 1 3 0.0000 19.901735 5.372705 12.508725
565 1 3 0.0000 20.679396 1.882275 11.025360
566 1 3 0.0000 20.059644 3.640835 6.839493
567 1 3 0.0000 17.121354 2.602088 8.470111
568 1 3 0.0000 20.335913 1.025066 8.729311
569 1 3 0.0000 17.356023 8.242104 10.637618
570 1 3 0.0000 17.354865 9.629787 6.976638
571 1 3 0.0000 16.298647 11.446911 10.227898
572 1 3 0.0000 20.734457 12.067094 11.195925
573 1 3 0.0000 19.415792 8.956598 12.174390
574 1 3 0.0000 17.654464 12.084657 12.197585
575 1 3 0.0000 -0.249310 17.672117 7.389707
576 1 3 0.0000 2.763432 17.375926 4.906946
577 1 3 0.0000 2.659600 16.463296 8.667871
578 1 3 0.0000 0.472732 12.592145 7.558857
579 1 3 0.0000 -1.587387 15.422262 7.902077
580 1 3 0.0000 1.352394 14.718118 9.838423
581 1 3 0.0000 5.938989 13.316476 3.446664
582 1 3 0.0000 6.365011 9.736509 1.919972
583 1 3 0.0000 3.110357 11.460659 3.112769
584 1 3 0.0000 3.084964 13.870652 -0.784589
585 1 3 0.0000 5.071563 15.216164 1.787273
586 1 3 0.0000 1.966555 13.469190 2.228379
587 1 3 0.0000 13.404083 13.733913 20.929621
588 1 3 0.0000 10.097721 12.418794 19.296562
589 1 3 0.0000 11.577502 15.993881 19.165293
590 1 3 0.0000 14.539916 14.536081 15.987710
591 1 3 0.0000 15.516652 13.952435 19.315892
592 1 3 0.0000 13.678346 16.801390 18.136211
593 1 3 0.0000 1.356075 2.638355 2.318567
594 1 3 0.0000 1.153968 1.611740 -1.454185
595 1 3 0.0000 4.308893 2.380069 0.653977
596 1 3 0.0000 3.946779 -1.789235 2.520494
597 1 3 0.0000 1.982418 0.700692 4.041350
598 1 3 0.0000 5.238798 1.179436 2.608046
599 1 3 0.0000 14.143697 5.575628 20.404363
600 1 3 0.0000 15.238654 9.410647 20.167495
601 1 3 0.0000 17.134332 7.276723 18.697504
602 1 3 0.0000 14.561075 5.042577 15.404115
603 1 3 0.0000 17.310361 6.145360 16.504939
604 1 3 0.0000 15.161201 8.099959 15.179080
605 1 3 0.0000 20.163035 6.844679 0.712739
606 1 3 0.0000 16.915041 5.410002 -1.118831
607 1 3 0.0000 16.492418 6.627188 1.821909
608 1 3 0.0000 17.795946 11.182655 1.732385
609 1 3 0.0000 16.044245 8.816802 2.881646
610 1 3 0.0000 15.345122 10.175688 0.077738
611 1 3 0.0000 12.788954 -0.809462 14.052955
612 1 3 0.0000 14.306290 2.766346 13.118238
613 1 3 0.0000 11.107812 2.495406 13.051657
614 1 3 0.0000 9.640778 1.286822 17.392925
615 1 3 0.0000 9.191413 2.699661 14.602142
616 1 3 0.0000 10.998458 4.049738 16.862479
617 1 3 0.0000 20.278283 0.534739 2.845239
618 1 3 0.0000 17.201187 1.762056 5.078529
619 1 3 0.0000 17.213714 2.692149 2.005603
620 1 3 0.0000 17.140702 -1.191377 -0.709608
621 1 3 0.0000 16.459771 1.851334 -0.195059
622 1 3 0.0000 14.729247 -0.475318 1.142559
623 1 3 0.0000 17.102524 16.672070 10.764011
624 1 3 0.0000 21.029180 17.041012 11.402494
625 1 3 0.0000 20.036672 17.262852 8.357200
626 1 3 0.0000 17.042423 20.923079 8.046267
627 1 3 0.0000 19.205137 18.989393 6.793257
628 1 3 0.0000 20.052680 21.360411 8.757229
629 1 3 0.0000 19.055391 12.266567 16.651202
630 1 3 0.0000 15.112137 11.682058 16.383786
631 1 3 0.0000 16.076099 14.580453 17.372820
632 1 3 0.0000 18.712869 16.507526 13.938682
633 1 3 0.0000 16.740037 16.753370 16.395103
634 1 3 0.0000 15.675614 15.922579 13.501311
635 1 3 0.0000 17.378442 3.040341 18.541305
636 1 3 0.0000 16.205964 -0.540299 19.870485
637 1 3 0.0000 17.973403 -0.505356 17.190365
638 1 3 0.0000 22.160722 1.464777 18.212329
639 1 3 0.0000 20.358571 -0.516693 16.535265
640 1 3 0.0000 21.301521 -1.250086 19.496722
641 1 3 0.0000 4.474647 1.193738 10.851709
642 1 3 0.0000 2.425444 -2.079947 11.874528
643 1 3 0.0000 3.106655 -0.010214 14.232549
644 1 3 0.0000 1.103351 4.150111 13.165805
645 1 3 0.0000 2.141416 2.022620 15.259298
646 1 3 0.0000 -0.640578 1.623519 13.743228
647 1 3 0.0000 2.555354 9.141053 21.942801
648 1 3 0.0000 3.943812 12.302559 19.932957
649 1 3 0.0000 3.147578 9.724357 18.193133
650 1 3 0.0000 -1.454560 8.837131 18.895009
651 1 3 0.0000 1.146807 8.762431 17.102295
652 1 3 0.0000 -0.517029 11.461285 17.483192
653 1 3 0.0000 4.272475 11.025362 15.664985
654 1 3 0.0000 2.575908 13.713827 18.084949
655 1 3 0.0000 3.393870 14.728695 15.150825
656 1 3 0.0000 1.011872 12.136701 11.977952
657 1 3 0.0000 2.425899 14.816271 12.876254
658 1 3 0.0000 -0.483399 14.047816 13.945229
659 1 3 0.0000 11.472804 16.410157 4.697127
660 1 3 0.0000 13.660535 13.371075 6.090045
661 1 3 0.0000 14.521326 14.581317 3.243563
662 1 3 0.0000 15.627043 19.148539 3.857848
663 1 3 0.0000 15.948922 16.391543 2.347259
664 1 3 0.0000 17.324665 16.887480 5.186030
665 1 3 0.0000 10.307561 19.082870 2.702415
666 1 3 0.0000 13.678325 19.070402 4.847222
667 1 3 0.0000 13.452983 16.887960 2.503236
668 1 3 0.0000 12.930437 19.188666 -1.606895
669 1 3 0.0000 13.917882 16.705974 0.080621