# LAMMPS data file written by OVITO Basic 3.10.6

6448 atoms
5 atom types

0.0 40.0 xlo xhi
0.0 40.0 ylo yhi
0.0 40.0 zlo zhi

Masses

1 28.0855  # Si
2 15.9994  # O
3 1.00794  # H
4 26.981538  # Al
5 22.98977  # Na

Atoms  # full

1 1 1 0.0 10.42713825 14.56241424 34.11638304
2 1 1 0.0 29.98029628 15.31326142 30.8237797
3 1 1 0.0 9.21443963 17.70394172 12.94359958
4 1 1 0.0 38.75798463 15.41076406 36.36234965
5 1 1 0.0 34.94711673 12.48777376 9.47147949
6 1 1 0.0 24.16865292 39.06178153 36.65664922
7 1 1 0.0 8.86212339 37.71029313 17.11391222
8 1 1 0.0 9.97750624 35.48840612 7.93847074
9 1 1 0.0 18.7291697 23.28084908 17.18036845
10 1 1 0.0 26.65557525 23.84231093 21.80376573
11 1 1 0.0 12.45454507 27.10722564 12.93322058
12 1 1 0.0 3.59494735 37.72812581 19.13261346
13 1 1 0.0 38.47007446 40.63700003 2.14680993
14 1 1 0.0 23.65699113 1.50942166 25.02092904
15 1 1 0.0 28.72748612 6.93648173 16.43933063
16 1 1 0.0 25.37982935 5.14352921 20.59501956
17 1 1 0.0 34.24974292 35.77206121 31.89484478
18 1 1 0.0 26.84761471 18.82028662 4.43213299
19 1 1 0.0 3.97285514 0.28120454 14.70140683
20 1 1 0.0 4.42819041 3.85279175 28.18887254
21 1 1 0.0 29.4077957 13.08868752 20.30337515
22 1 1 0.0 3.59896778 20.84116349 18.34044784
23 1 1 0.0 14.63504447 8.1229661 4.00581574
24 1 1 0.0 0.7940473 -0.18519641 37.49863041
25 1 1 0.0 7.78221773 38.2781186 7.64209497
26 1 1 0.0 16.81457153 35.37306007 13.02321382
27 1 1 0.0 14.01717699 38.86966605 38.51710387
28 1 1 0.0 28.65401871 24.13678121 27.74674145
29 1 1 0.0 24.83555524 9.09681676 31.18478297
30 1 1 0.0 7.84549115 22.74636202 6.34695242
31 1 1 0.0 32.33934656 39.18417086 14.22450931
32 1 1 0.0 35.65475364 34.0221369 18.56709956
33 1 1 0.0 35.70457979 25.19545986 37.96982948
34 1 1 0.0 3.54518532 13.79680095 14.76939814
35 1 1 0.0 11.61198127 8.62073712 24.60322491
36 1 1 0.0 20.5315456 21.34837259 35.35647008
37 1 1 0.0 24.06957898 27.27513817 28.63666155
38 1 1 0.0 36.54859964 32.42242617 38.85338109
39 1 1 0.0 24.72931873 14.02118271 2.88294618
40 1 1 0.0 37.43989082 20.25584382 26.89390205
41 1 1 0.0 6.48346134 31.69895086 35.42967777
42 1 1 0.0 37.01064161 21.86322546 31.16292267
43 1 1 0.0 16.99768202 26.23992086 10.16632933
44 1 1 0.0 14.8063412 31.24720509 4.96561018
45 1 1 0.0 11.90974061 3.31915544 35.55572505
46 1 1 0.0 16.46564645 29.96308482 32.90661685
47 1 1 0.0 33.16072619 38.44637079 22.53600785
48 1 1 0.0 1.43135329 12.42992926 5.19973645
49 1 1 0.0 11.38809202 35.70370806 29.59169236
50 1 1 0.0 12.18966422 16.08939354 16.23013895
51 1 1 0.0 23.86816431 33.29886186 10.24843454
52 1 1 0.0 37.21899851 23.8662402 18.17128381
53 1 1 0.0 10.86132361 5.33469486 12.06606463
54 1 1 0.0 25.70550666 32.89698802 31.24809123
55 1 1 0.0 35.18334214 28.46148612 28.51688232
56 1 1 0.0 38.46547351 7.36047521 34.45918555
57 1 1 0.0 36.40653113 32.40709902 6.31521634
58 1 1 0.0 3.03452431 33.3727387 11.68130251
59 1 1 0.0 31.55382772 4.24418667 29.69274676
60 1 1 0.0 12.52745726 24.5212696 29.32960065
61 1 1 0.0 32.26759459 2.24449588 36.49773704
62 1 1 0.0 33.08829053 38.65396482 38.61335015
63 1 1 0.0 5.3818347 32.653064 26.04804132
64 1 1 0.0 17.266522 22.40451997 0.91028954
65 1 1 0.0 14.89785193 2.50005563 18.1666175
66 1 1 0.0 19.61291144 18.99204673 12.51339979
67 1 1 0.0 1.79608064 19.00019452 8.66596327
68 1 1 0.0 9.62621974 4.57155052 24.4356447
69 1 1 0.0 16.45029104 18.37248407 9.79839233
70 1 1 0.0 37.34477966 38.80514157 20.27782146
71 1 1 0.0 38.41336009 9.66168463 28.11325614
72 1 1 0.0 19.27344744 18.32656436 21.85646717
73 1 1 0.0 22.34973034 37.55708354 27.82550134
74 1 1 0.0 5.68671265 18.54029693 33.42805091
75 1 1 0.0 29.91144648 17.61141867 13.91567934
76 1 1 0.0 24.85039945 27.89669664 36.95473426
77 1 1 0.0 11.03820281 32.24319946 20.46716247
78 1 1 0.0 8.92032964 26.88940948 1.90881627
79 1 1 0.0 31.57945147 24.59260666 15.45839235
80 1 1 0.0 23.95406983 28.24885644 17.42545413
81 1 1 0.0 12.57868054 18.0986901 28.78678561
82 1 1 0.0 29.68201059 28.80065938 7.52419796
83 1 1 0.0 38.43419088 17.33051153 20.50473791
84 1 1 0.0 2.91791232 2.63602609 8.42293381
85 1 1 0.0 5.43884018 21.85814129 27.0549505
86 1 1 0.0 16.09866612 10.72143853 0.81507038
87 1 1 0.0 24.79416621 22.74083322 15.5168808
88 1 1 0.0 33.42556453 9.3095855 4.36417915
89 1 1 0.0 1.07241197 25.58162744 4.48967823
90 1 1 0.0 18.85055761 10.98558703 22.40321091
91 1 1 0.0 34.56278299 37.36995348 26.36510129
92 1 1 0.0 29.59666843 4.6168497 6.1323111
93 1 1 0.0 15.11599485 9.701489 14.92771489
94 1 1 0.0 20.53912028 38.15899875 7.23523836
95 1 1 0.0 38.66601386 18.47787557 3.0703869
96 1 1 0.0 1.20648214 6.7506654 25.02459751
97 1 1 0.0 34.26424702 11.06732076 30.75379215
98 1 1 0.0 5.3129426 10.48560514 27.96745539
99 1 1 0.0 5.35073901 6.96345505 19.80381211
100 1 1 0.0 36.10932118 0.60550135 23.49189806
101 1 1 0.0 31.70550972 36.33589697 1.21447697
102 1 1 0.0 11.39078744 12.56678105 8.72864352
103 1 1 0.0 10.91546045 22.00794174 0.02778152
104 1 1 0.0 35.77813108 20.23628054 6.38108598
105 1 1 0.0 21.9307196 8.21995512 12.79913034
106 1 1 0.0 26.31735692 24.91905763 2.44332643
107 1 1 0.0 3.69956025 26.86754467 36.04980274
108 1 1 0.0 29.20555143 1.10423259 22.44189121
109 1 1 0.0 12.08086856 31.19740618 16.14749777
110 1 1 0.0 25.90478549 16.24509862 18.97929193
111 1 1 0.0 10.63204209 16.3439934 22.9804811
112 1 1 0.0 18.94545641 36.32676972 38.45125904
113 1 1 0.0 36.59114568 1.046296 10.14546813
114 1 1 0.0 19.8451294 13.94286912 13.30778796
115 1 1 0.0 17.23047428 16.1722905 5.2837075
116 1 1 0.0 34.25750346 6.62015621 26.67299455
117 1 1 0.0 16.07892457 18.63520187 25.00628416
118 1 1 0.0 16.61778848 24.23602724 7.2579483
119 1 1 0.0 24.44708536 6.46239897 37.51798467
120 1 1 0.0 32.79384628 13.11136506 37.21581884
121 1 1 0.0 14.74690191 31.68949542 33.54847611
122 1 1 0.0 19.94006915 40.07957088 14.41653486
123 1 1 0.0 20.28231465 18.15467015 32.01822973
124 1 1 0.0 1.65818496 34.24451967 20.97907624
125 1 1 0.0 0.0091202 16.84728128 29.05862449
126 1 1 0.0 5.36703186 27.26883483 18.97205369
127 1 1 0.0 21.64157232 2.95773447 34.00693318
128 1 1 0.0 25.25928322 13.77003102 23.73470232
129 1 1 0.0 9.17142995 7.34289756 15.22056853
130 1 1 0.0 16.55488914 39.36501921 0.30404953
131 1 1 0.0 11.25127311 29.19077052 35.58879477
132 1 1 0.0 30.67400679 0.66088047 17.45736487
133 1 1 0.0 32.19836751 28.20769666 20.43814792
134 1 1 0.0 33.88938914 31.2411183 16.77102793
135 1 1 0.0 9.45043309 23.57754421 21.13361343
136 1 1 0.0 0.88865947 27.65876348 10.59044636
137 1 1 0.0 26.89283021 11.74325471 11.05645601
138 1 1 0.0 32.70402938 20.6618232 18.73243151
139 1 1 0.0 38.11127143 10.27571097 38.86137717
140 1 1 0.0 16.04438533 8.74345393 37.09194273
141 1 1 0.0 30.30904816 22.14551898 33.07826429
142 1 1 0.0 20.94862051 10.3470927 2.77315347
143 1 1 0.0 23.03546914 31.67659099 26.60710226
144 1 1 0.0 16.65212539 23.03463958 24.04255827
145 1 1 0.0 18.52476471 28.66240398 21.1097019
146 1 1 0.0 14.50835656 3.75336492 30.42607006
147 1 1 0.0 38.5302234 30.17128795 14.13683388
148 1 1 0.0 33.16669707 30.9706213 33.98437368
149 1 1 0.0 37.55200595 25.22171578 6.52964527
150 1 1 0.0 8.1636146 40.2792769 22.99651237
151 1 1 0.0 10.45689145 2.49076236 3.56182739
152 1 1 0.0 24.07127525 30.61170328 4.42269576
153 1 1 0.0 18.23205902 26.93030043 37.16180012
154 1 1 0.0 24.34259489 39.20667719 7.71376977
155 1 1 0.0 18.56834887 1.79232879 2.57187147
156 1 1 0.0 24.68602537 4.86450079 24.69565623
157 1 1 0.0 2.80414469 11.08947458 35.36230602
158 1 1 0.0 9.68331278 15.80452106 6.02020351
159 1 1 0.0 21.86443127 -0.36755145 10.64588463
160 1 1 0.0 21.06730443 18.89722456 40.22037267
161 1 1 0.0 5.1667311 15.40919215 3.35807251
162 1 1 0.0 32.43319612 12.84919227 22.57496547
163 1 1 0.0 13.09698786 20.10066578 17.72566066
164 1 1 0.0 13.26746536 9.62752859 34.02750484
165 1 1 0.0 19.66635939 35.55054752 30.83116756
166 1 1 0.0 14.03822042 40.01780286 16.05395937
167 1 1 0.0 22.58110677 12.87844071 9.10796465
168 1 1 0.0 24.50719753 4.49537161 4.29301705
169 1 1 0.0 24.21395548 22.87394754 9.91457805
170 1 1 0.0 11.67176547 6.21568959 7.23516595
171 1 1 0.0 31.78349279 33.90129821 10.14599449
172 1 1 0.0 35.57678986 13.05865585 26.27150846
173 1 1 0.0 23.51157798 19.35653755 25.72237962
174 1 1 0.0 15.42623862 25.62252132 19.22295075
175 1 1 0.0 14.12555442 30.96232914 12.00169124
176 1 1 0.0 27.00459411 20.64620449 36.67214104
177 1 1 0.0 5.35297197 10.8555309 9.91115268
178 1 1 0.0 3.58273973 4.45860449 12.97701396
179 1 1 0.0 0.9825685 27.64929927 32.66206518
180 1 1 0.0 25.40374229 32.98596623 22.26394933
181 1 1 0.0 39.42955593 30.39470601 34.05712216
182 1 1 0.0 22.68403903 34.10600449 0.25225605
183 1 1 0.0 9.69165186 19.10083123 32.8898738
184 1 1 0.0 -0.25805129 33.60595562 30.52019931
185 1 1 0.0 1.56039171 1.60597018 25.19331094
186 1 1 0.0 26.14372268 6.45576475 27.93108899
187 1 1 0.0 5.27521002 6.58668069 2.2418294
188 1 1 0.0 14.94946418 14.8177953 22.1334359
189 1 1 0.0 32.26795278 23.136301 3.32682064
190 1 1 0.0 18.31040848 37.75213995 23.96148612
191 1 1 0.0 20.68469955 19.60703934 6.50605656
192 1 1 0.0 30.36923155 14.12500987 26.75205425
193 1 1 0.0 32.6378011 30.96861474 2.56847218
194 1 1 0.0 31.58166301 -0.49496088 11.64690334
195 1 1 0.0 0.31402815 32.13013274 1.9099421
196 1 1 0.0 37.87316788 36.63468662 16.40252447
197 1 1 0.0 2.79739759 40.07912069 38.21864544
198 1 1 0.0 7.99158011 25.3147814 35.67362732
199 1 1 0.0 12.4316721 11.67957625 39.05345943
200 1 1 0.0 31.5439391 13.72102167 4.19623874
201 1 1 0.0 32.05159233 22.74931313 11.42454315
202 1 1 0.0 32.52021719 7.5291556 13.75127288
203 1 1 0.0 22.24338891 12.66352661 37.40534632
204 1 1 0.0 19.89019432 5.40669723 16.07069373
205 1 1 0.0 36.53253311 6.15181136 14.93138871
206 1 1 0.0 28.65824756 0.11063753 32.90155643
207 1 1 0.0 28.58129148 9.48830928 39.03164674
208 1 1 0.0 1.62090288 10.95325813 19.82177321
209 1 1 0.0 13.84337173 15.97787237 35.30607313
210 1 1 0.0 12.98189131 17.66085907 37.58491923
211 1 1 0.0 28.70495945 19.84236792 28.9427881
212 1 1 0.0 27.45873257 21.98360011 30.56444637
213 1 1 0.0 25.47528029 2.09798774 11.60850957
214 1 1 0.0 23.51073652 2.21997076 13.8206172
215 1 1 0.0 11.1626769 29.25014627 8.82268328
216 1 1 0.0 11.66543045 26.56081216 7.69022877
217 1 1 0.0 1.05169289 7.24538453 33.34139457
218 1 1 0.0 0.34833311 5.92543757 35.89692921
219 1 1 0.0 3.06209 25.6480574 22.71766177
220 1 1 0.0 0.25825594 25.01597775 23.42950598
221 1 1 0.0 1.64000773 35.99236995 37.49966743
222 1 1 0.0 0.01822959 36.7271072 35.13371538
223 1 1 0.0 15.19349088 2.9919 24.15973455
224 1 1 0.0 15.38906831 0.48119436 22.60222406
225 1 1 0.0 34.55717173 1.87627058 2.41198341
226 1 1 0.0 35.46933425 -0.29638306 0.61886658
227 1 1 0.0 36.7302654 19.94416696 35.50383574
228 1 1 0.0 39.51611815 20.27807251 34.55765193
229 1 1 0.0 39.02085076 5.53368391 6.36039224
230 1 1 0.0 36.97686168 7.67409863 6.26838276
231 1 1 0.0 16.86268968 18.3381864 30.69424272
232 1 1 0.0 14.96793705 20.02968868 32.2162364
233 1 1 0.0 17.92117798 2.05565674 37.11042412
234 1 1 0.0 19.28775927 0.37846667 35.08873638
235 1 1 0.0 39.73719645 4.0229181 36.92307051
236 1 1 0.0 38.45262086 2.08030566 38.7516915
237 1 1 0.0 -0.09668012 5.48281419 3.28650233
238 1 1 0.0 2.08562612 6.01330198 1.35677322
239 1 1 0.0 9.63056601 37.89464775 36.03124464
240 1 1 0.0 9.19237982 35.64767836 37.90923657
241 1 1 0.0 16.56218899 7.26016688 25.29615392
242 1 1 0.0 18.9054253 8.6630658 26.44020395
243 1 1 0.0 21.46192671 11.62164421 31.52166981
244 1 1 0.0 19.0315669 12.51145061 30.0831539
245 1 1 0.0 21.76033242 16.83134672 17.88812076
246 1 1 0.0 22.65119235 18.57424035 15.6663146
247 1 1 0.0 9.32408077 1.31775837 38.97088599
248 1 1 0.0 7.28151325 3.45018161 38.75083755
249 1 1 0.0 27.10232299 4.76961703 36.31862957
250 1 1 0.0 25.73195549 2.67092658 34.74213866
251 1 1 0.0 34.54824939 23.97342463 1.55609684
252 1 1 0.0 37.13485672 23.71285535 2.97359408
253 1 1 0.0 36.81242196 11.73466327 17.71177999
254 1 1 0.0 39.75271724 11.50523223 17.4476639
255 1 1 0.0 20.72761835 23.65343386 29.62951708
256 1 1 0.0 18.65383562 25.57746976 30.50429895
257 1 1 0.0 33.30200958 1.89474108 32.6673688
258 1 1 0.0 36.17907911 1.19580058 32.62631605
259 1 1 0.0 34.06511919 13.32396766 15.15675668
260 1 1 0.0 35.46274723 15.68069255 16.27935007
261 1 1 0.0 39.27823767 8.30089029 2.14203804
262 1 1 0.0 39.39444034 11.2127771 1.61749593
263 1 1 0.0 5.63917327 9.24742041 37.63885288
264 1 1 0.0 3.39048252 8.55892002 39.4380442
265 1 1 0.0 29.05380763 15.97698338 1.40790632
266 1 1 0.0 31.09051633 17.505389 -0.10322777
267 1 1 0.0 4.81191138 30.4676733 5.88119558
268 1 1 0.0 2.40843717 29.86044349 7.50055223
269 1 1 0.0 2.32600579 19.62010192 23.6756625
270 1 1 0.0 2.66823857 16.93989376 24.88689875
271 1 1 0.0 33.33270912 27.52145167 35.41766052
272 1 1 0.0 30.63877017 28.05702789 36.52381753
273 1 1 0.0 38.54763975 18.77144411 12.04705826
274 1 1 0.0 36.04285101 17.20862438 11.82043054
275 1 1 0.0 6.44282289 36.98863502 27.55204079
276 1 1 0.0 7.23443267 39.75066352 26.83630006
277 1 1 0.0 1.45897127 20.36182946 4.99026875
278 1 1 0.0 0.37577769 22.16446914 2.90582299
279 1 1 0.0 26.25639152 37.27363233 14.12036554
280 1 1 0.0 24.05445293 35.31377598 14.39993992
281 1 1 0.0 2.65739489 0.45076843 -0.1257878
282 1 1 0.0 4.24175353 1.34819837 2.20919817
283 1 1 0.0 23.15753907 24.43849853 36.15609685
284 1 1 0.0 21.72174323 25.97433492 34.07104789
285 1 1 0.0 22.77415826 6.40767222 7.64256324
286 1 1 0.0 25.46197703 5.8265526 8.74058989
287 1 1 0.0 10.00877559 0.13464769 15.11355166
288 1 1 0.0 11.35852077 1.49214904 17.37255815
289 1 1 0.0 7.91119071 1.51842639 35.506803
290 1 1 0.0 8.21527716 -0.56015569 33.41999677
291 1 1 0.0 21.34707745 31.80507965 38.29871349
292 1 1 0.0 19.53266874 31.03595745 40.50871448
293 1 1 0.0 38.13675034 38.39182833 35.74355213
294 1 1 0.0 39.47723184 36.59875204 37.68151989
295 1 1 0.0 31.73995068 32.78778125 26.14505855
296 1 1 0.0 33.57302545 34.18711261 28.00232561
297 1 1 0.0 38.2089133 5.40358041 23.90484053
298 1 1 0.0 40.70168496 3.93232922 23.28094819
299 1 1 0.0 33.19999108 17.44473917 27.65239503
300 1 1 0.0 32.98839196 20.20761871 26.60862554
301 1 1 0.0 21.61866177 21.3766873 1.9985698
302 1 1 0.0 20.98645749 21.2084904 -0.88929443
303 1 1 0.0 14.20856414 7.60061484 31.07591709
304 1 1 0.0 17.02136964 8.52561623 31.09107999
305 1 1 0.0 15.17430066 29.26187865 2.40474404
306 1 1 0.0 15.26396933 29.00060756 -0.54337896
307 1 1 0.0 21.58497961 33.23357223 17.43174063
308 1 1 0.0 22.83913076 34.88711089 19.54376503
309 1 1 0.0 5.516164 35.41868168 31.21166625
310 1 1 0.0 3.57369989 35.93859008 29.0381298
311 1 1 0.0 21.85854693 38.29943583 2.75246073
312 1 1 0.0 20.09193914 37.95613483 0.40108376
313 1 1 0.0 24.69053187 37.99386739 31.58133966
314 1 1 0.0 25.47101104 39.55068484 29.1865737
315 1 1 0.0 39.88469005 15.62926449 8.59162375
316 1 1 0.0 37.62410235 15.23469155 6.72031733
317 1 1 0.0 8.42710004 35.04794787 1.65880893
318 1 1 0.0 8.41037208 33.00173834 -0.48139643
319 1 1 0.0 0.75558826 40.59926047 6.01231652
320 1 1 0.0 1.53975372 38.10340539 4.62540476
321 1 1 0.0 24.92272602 16.21342011 32.57441371
322 1 1 0.0 25.05606711 14.46642974 34.96145729
323 1 1 0.0 7.39879472 21.37350734 14.85847447
324 1 1 0.0 5.85637781 19.79116987 12.88746192
325 1 1 0.0 6.7322238 21.35562873 38.00162176
326 1 1 0.0 3.95147287 21.53154106 39.00372523
327 1 1 0.0 30.0993413 30.96586558 16.85015566
328 1 1 0.0 29.77669566 33.62543971 15.58908568
329 1 1 0.0 14.63291829 31.73794966 37.95693154
330 1 1 0.0 14.14537175 33.34671997 40.39453051
331 1 1 0.0 6.60523219 33.68087629 16.78227047
332 1 1 0.0 7.50602395 32.62421551 19.39756672
333 1 1 0.0 39.03893821 33.4433042 4.4400889
334 1 1 0.0 39.10344527 36.39675348 4.23832551
335 1 1 0.0 15.24347056 40.11493009 4.8860832
336 1 1 0.0 13.85621075 37.5026325 5.02444435
337 1 1 0.0 39.24339723 36.37117479 28.38294782
338 1 1 0.0 39.28181575 36.50498437 31.34070901
339 1 1 0.0 36.25280825 21.12709713 39.19101531
340 1 1 0.0 38.64743446 19.40269362 38.94620902
341 1 1 0.0 0.81257447 26.91816248 18.18361437
342 1 1 0.0 0.84104356 28.91796544 20.36712299
343 1 1 0.0 39.43443722 26.68626914 23.85411828
344 1 1 0.0 39.55665108 29.01724942 22.03221626
345 1 1 0.0 13.92916621 19.9002666 12.32500504
346 1 1 0.0 11.59252823 21.32441329 13.45622627
347 1 1 0.0 15.84641318 14.42833737 11.4924206
348 1 1 0.0 13.63181302 15.61742159 9.92737839
349 1 1 0.0 6.84517676 11.68987965 18.95215617
350 1 1 0.0 7.00050355 12.89093356 16.25010596
351 1 1 0.0 40.23685157 11.70269563 35.31240285
352 1 1 0.0 38.20895615 12.42570586 33.27951607
353 1 1 0.0 2.01452008 39.64461398 12.5289843
354 1 1 0.0 0.59277795 37.46881737 13.94753664
355 1 1 0.0 14.51968595 37.44043028 28.77852574
356 1 1 0.0 12.30152072 38.37529812 27.05414255
357 1 1 0.0 1.89298617 31.39967271 36.8767756
358 1 1 0.0 3.63837032 29.21592046 37.85278408
359 1 1 0.0 35.24415407 30.01308294 8.57246983
360 1 1 0.0 36.25112489 27.76828269 10.22007836
361 1 1 0.0 4.81364093 14.64567585 38.94872992
362 1 1 0.0 6.08870935 17.24608478 39.56501413
363 1 1 0.0 19.8039471 29.95084213 14.97907948
364 1 1 0.0 16.85670669 29.92350438 14.69489842
365 1 1 0.0 33.31720442 21.14705063 22.68834585
366 1 1 0.0 32.71664057 23.57710613 21.10661085
367 1 1 0.0 38.58334957 38.66060097 9.62170532
368 1 1 0.0 40.15819902 36.1663096 9.87878908
369 1 1 0.0 26.20833413 -0.62847477 0.83909397
370 1 1 0.0 24.23029256 1.55777146 0.5644829
371 1 1 0.0 27.94658159 18.64684318 21.99989552
372 1 1 0.0 27.60788901 20.37061578 24.38351202
373 1 1 0.0 5.80905943 38.33109861 33.44847958
374 1 1 0.0 3.84040574 40.52752463 33.70895544
375 1 1 0.0 27.95690416 9.24882786 7.40477766
376 1 1 0.0 29.70056374 11.63907699 7.52349017
377 1 1 0.0 21.5156233 28.30971376 9.43949182
378 1 1 0.0 20.84497435 28.81425679 6.59987942
379 1 1 0.0 8.69737269 29.20472353 25.54599082
380 1 1 0.0 7.53493324 31.43818281 23.98774615
381 1 1 0.0 8.16642241 16.82421425 17.75724916
382 1 1 0.0 7.24690762 19.46272433 18.73729476
383 1 1 0.0 9.19552139 12.87336747 3.74016325
384 1 1 0.0 10.55103091 12.41393376 1.14801224
385 1 1 0.0 15.61030079 7.63271234 10.60804122
386 1 1 0.0 18.16039342 9.121787 10.39028791
387 1 1 0.0 16.95543314 13.57620358 38.40720293
388 1 1 0.0 18.00013785 15.63808212 40.2578734
389 1 1 0.0 17.82528206 1.12166919 27.71823489
390 1 1 0.0 18.92210997 3.87067768 27.80571735
391 1 1 0.0 28.06091696 34.60354049 6.03357543
392 1 1 0.0 30.86159028 35.46781695 5.61287669
393 1 1 0.0 16.59598704 35.37676689 22.44776186
394 1 1 0.0 17.13851007 32.67686109 21.35968572
395 1 1 0.0 37.94287103 6.44963925 0.76753358
396 1 1 0.0 35.37335139 4.99528835 0.54355911
397 1 1 0.0 23.2157418 34.30474188 39.6515927
398 1 1 0.0 22.93957814 34.95220957 36.77544049
399 1 1 0.0 5.38592913 0.48330431 20.73839195
400 1 1 0.0 3.95836829 2.88183342 21.72675447
401 1 1 0.0 17.27532627 37.93735759 5.49326312
402 1 1 0.0 17.66299071 35.10641147 6.2699179
403 1 1 0.0 7.72247536 22.31655458 31.27661546
404 1 1 0.0 7.50958566 24.5804703 29.38001433
405 1 1 0.0 30.33561909 10.47920736 1.04395062
406 1 1 0.0 28.46628202 8.34261971 0.20234239
407 1 1 0.0 26.48436028 39.78859675 19.43182977
408 1 1 0.0 27.44197474 36.98732486 19.49168463
409 1 1 0.0 31.53215852 22.97141401 40.1751493
410 1 1 0.0 32.66662149 22.67322452 37.45636113
411 1 1 0.0 7.34318919 0.32278852 7.64101829
412 1 1 0.0 9.93011127 1.50636922 8.46242146
413 1 1 0.0 28.06122942 0.97279842 8.19170307
414 1 1 0.0 30.2660876 0.83136306 6.2203257
415 1 1 0.0 0.43833056 16.84925849 2.23815926
416 1 1 0.0 1.63370054 17.4879247 -0.39450638
417 1 1 0.0 18.79726317 5.31681078 4.11230778
418 1 1 0.0 18.82853907 8.03835769 5.27847096
419 1 1 0.0 38.31276867 7.04147587 18.25745862
420 1 1 0.0 40.53492581 8.82854212 19.05504508
421 1 1 0.0 4.83602572 29.1819901 13.81633659
422 1 1 0.0 6.51215964 27.9768677 11.69360548
423 1 1 0.0 28.07538649 21.33787403 17.73893834
424 1 1 0.0 29.92810554 19.98967934 15.86342894
425 1 1 0.0 7.97347387 14.8759827 31.6303432
426 1 1 0.0 9.27657073 12.23886971 31.29077591
427 1 1 0.0 2.75948926 21.58834556 31.31997102
428 1 1 0.0 0.86980076 22.89205294 33.19003966
429 1 1 0.0 8.20478185 2.28089499 23.66138559
430 1 1 0.0 10.03442191 0.69037548 25.36150241
431 1 1 0.0 23.08664951 9.41846007 21.9922453
432 1 1 0.0 20.81161051 7.75889468 21.07694613
433 1 1 0.0 29.22430033 34.04096547 38.06054551
434 1 1 0.0 28.86210629 31.40293504 39.35566837
435 1 1 0.0 27.93114969 10.99607819 32.49989989
436 1 1 0.0 27.12314895 11.97544754 29.82488536
437 1 1 0.0 27.27036062 39.64476595 1.24962365
438 1 1 0.0 27.34528212 36.77705968 0.51587997
439 1 1 0.0 12.65224753 35.05714009 18.24183996
440 1 1 0.0 14.50005191 33.78220832 16.31106286
441 1 1 0.0 1.94931615 19.02516724 15.84127719
442 1 1 0.0 -0.79076405 20.07549761 16.23687659
443 1 1 0.0 19.0263368 40.09619034 36.92241717
444 1 1 0.0 17.66828322 38.76152395 34.65479985
445 1 1 0.0 20.53662349 13.52192312 2.8665126
446 1 1 0.0 20.52995956 16.37596089 2.07774377
447 1 1 0.0 6.32742641 8.94894533 5.54341715
448 1 1 0.0 9.11470653 8.17264892 4.91400017
449 1 1 0.0 6.10023418 5.60874695 32.51376284
450 1 1 0.0 9.02279006 5.27604487 32.17360298
451 1 1 0.0 -0.28529479 0.46941643 30.21749838
452 1 1 0.0 1.85690037 1.98150971 31.59310954
453 1 1 0.0 4.79640439 36.36573578 0.98575055
454 1 1 0.0 1.95908327 36.00643805 0.21877841
455 1 1 0.0 7.83456212 17.59263048 23.96068381
456 1 1 0.0 9.16722969 19.18650503 21.85087498
457 1 1 0.0 37.38217155 2.19453569 27.99254097
458 1 1 0.0 38.58619776 -0.50068029 27.76045483
459 1 1 0.0 12.26396248 21.64808284 37.79387347
460 1 1 0.0 12.29393303 23.87908252 39.74053073
461 1 1 0.0 10.35853289 39.45176082 -0.01290164
462 1 1 0.0 8.8352332 38.81970144 2.4463241
463 1 1 0.0 38.18615637 2.9329387 16.98192648
464 1 1 0.0 40.53956557 3.43498238 15.25648465
465 1 1 0.0 6.2492052 14.31198172 27.49877955
466 1 1 0.0 5.60273913 16.86416918 28.8538268
467 1 1 0.0 30.44713855 1.78485507 28.2235432
468 1 1 0.0 32.68507045 0.80251933 26.55189443
469 1 1 0.0 -0.14256969 34.6294948 11.87524505
470 1 1 0.0 1.28421835 36.40576522 9.98398317
471 1 1 0.0 22.88343671 38.22468658 21.46090803
472 1 1 0.0 21.83856983 39.70559706 19.11935094
473 1 1 0.0 26.61103931 1.17614028 39.28981571
474 1 1 0.0 29.18379468 0.67250748 37.91321988
475 1 1 0.0 40.41014295 24.93495006 35.07693158
476 1 1 0.0 37.93592527 26.30205569 34.19545478
477 1 1 0.0 26.40514683 13.08062935 38.1584731
478 1 1 0.0 27.29258896 15.23921396 39.98074949
479 1 1 0.0 18.21292503 2.46988411 16.28877548
480 1 1 0.0 18.02703921 -0.47846453 16.48982031
481 1 1 0.0 35.78210707 33.14879713 13.40571389
482 1 1 0.0 33.3540525 34.62986887 14.22955232
483 1 1 0.0 6.67887554 38.5750836 10.57266981
484 1 1 0.0 6.23037859 40.49436906 12.7824042
485 1 1 0.0 14.34697008 4.30812261 1.64657439
486 1 1 0.0 12.37441003 5.2260874 -0.36192749
487 1 1 0.0 37.92932105 9.26475646 9.82755443
488 1 1 0.0 40.44877174 10.0926329 8.51046631
489 1 1 0.0 3.48900619 33.43770558 17.33624444
490 1 1 0.0 0.66912055 32.55324962 17.15262834
491 1 1 0.0 32.54459776 23.64389344 7.31919264
492 1 1 0.0 34.14735256 24.52405605 9.6481888
493 1 1 0.0 29.86007587 37.05681165 27.24253102
494 1 1 0.0 28.10663526 37.89422661 25.00827175
495 1 1 0.0 0.40911254 17.44556305 40.09807075
496 1 1 0.0 1.28564386 16.40359616 37.46867346
497 1 1 0.0 31.59695804 19.32608798 4.84735526
498 1 1 0.0 30.29576209 17.32715181 6.60202775
499 1 1 0.0 34.02825474 19.20754765 34.63916374
500 1 1 0.0 36.09350167 18.95132994 32.53278299
501 1 1 0.0 31.77995501 4.07703063 18.55782355
502 1 1 0.0 33.37569223 6.16177076 19.92720793
503 1 1 0.0 11.55261577 21.0960992 6.10212749
504 1 1 0.0 9.79219631 19.25444027 7.61108342
505 1 1 0.0 27.51728775 28.34551925 33.48055552
506 1 1 0.0 28.69800335 29.97416712 31.30773499
507 1 1 0.0 20.39736853 26.62838681 -0.2742228
508 1 1 0.0 21.78286305 28.77817534 1.21793888
509 1 1 0.0 31.29732901 10.46961248 26.34260682
510 1 1 0.0 30.76707061 8.05685414 27.97513723
511 1 1 0.0 23.68189749 30.41591575 32.63817081
512 1 1 0.0 21.47755481 32.2296286 33.42496897
513 1 1 0.0 38.09881742 -0.21377966 4.13107298
514 1 1 0.0 39.58208725 1.6309147 2.3520998
515 1 1 0.0 1.46355379 38.84573381 30.43182935
516 1 1 0.0 1.57199081 40.02224778 27.71672556
517 1 1 0.0 35.70700985 29.02248262 2.84194167
518 1 1 0.0 38.41714442 28.98303693 1.64973912
519 1 1 0.0 3.51576531 3.15122232 38.51663685
520 1 1 0.0 1.25344063 3.40289161 40.41038495
521 1 1 0.0 6.08566343 24.0475673 -0.72518585
522 1 1 0.0 5.96557001 25.13209766 2.0274681
523 1 1 0.0 31.55503205 31.60502922 21.43929852
524 1 1 0.0 30.89110996 33.6928202 19.44729738
525 1 1 0.0 6.40576151 11.8019478 21.78139614
526 1 1 0.0 4.49048951 14.03885265 22.09078602
527 1 1 0.0 23.36276131 25.30856195 14.22260271
528 1 1 0.0 21.46973975 25.86429676 16.43062456
529 1 1 0.0 38.31819645 37.81536925 23.97225534
530 1 1 0.0 40.03228324 40.03581959 23.0239732
531 1 1 0.0 29.64541539 4.86745794 11.30454804
532 1 1 0.0 31.87096876 6.37080021 10.05770945
533 1 1 0.0 -0.013331 3.51459694 22.40058228
534 1 1 0.0 1.16991693 2.07995553 20.09635559
535 1 1 0.0 31.26475875 1.73934818 1.87793536
536 1 1 0.0 32.26372818 3.31907868 -0.41863685
537 1 1 0.0 26.6688779 28.53685872 21.15292923
538 1 1 0.0 24.87317441 29.03392516 23.45425629
539 1 1 0.0 39.53496452 20.98996229 21.87006551
540 1 1 0.0 38.78630054 23.62693686 20.75042286
541 1 1 0.0 30.13731752 27.40430793 28.26150267
542 1 1 0.0 30.8926739 25.99937214 25.76684349
543 1 1 0.0 34.21142504 39.08563694 7.99797712
544 1 1 0.0 32.49331791 39.73712137 10.31991773
545 1 1 0.0 31.18665294 30.66733835 10.98880525
546 1 1 0.0 30.76792023 28.06519216 12.33833494
547 1 1 0.0 23.4262658 12.28915137 17.68070069
548 1 1 0.0 24.93153108 12.57766373 15.1471914
549 1 1 0.0 17.26699138 22.83992095 28.51309321
550 1 1 0.0 14.94373156 21.25371168 27.58889829
551 1 1 0.0 6.84037316 -0.30646417 16.58686048
552 1 1 0.0 7.24781011 2.62583614 16.64467313
553 1 1 0.0 32.66993398 6.0406252 36.45424583
554 1 1 0.0 34.92282345 6.79425284 34.6866863
555 1 1 0.0 11.44331515 40.68488722 35.15739263
556 1 1 0.0 12.97400046 38.16942101 34.84568044
557 1 1 0.0 38.00325155 23.00562112 9.69898199
558 1 1 0.0 40.09392374 22.02266794 7.84678732
559 1 1 0.0 37.73470139 26.3197186 16.76925824
560 1 1 0.0 35.56704641 24.81765788 15.42284905
561 1 1 0.0 26.89098939 39.94598257 39.94551334
562 1 1 0.0 27.26717474 37.11924936 39.14814502
563 1 1 0.0 39.76546467 14.05213104 22.7577963
564 1 1 0.0 39.04056828 16.10921074 24.76046468
565 1 1 0.0 23.93538659 20.0279164 21.67080956
566 1 1 0.0 21.10354633 20.35198968 20.8686939
567 1 1 0.0 10.04866966 11.0160176 36.63229741
568 1 1 0.0 8.72335552 8.96617017 34.95617086
569 1 1 0.0 0.89906474 12.77579758 33.983737
570 1 1 0.0 8.0576e-04 13.05255316 31.17584287
571 1 1 0.0 4.12221926 31.32147365 33.10864138
572 1 1 0.0 5.48887082 29.81506788 30.95672655
573 1 1 0.0 -0.12616805 30.84335092 26.19152871
574 1 1 0.0 2.12534588 31.22992116 24.30765484
575 1 1 0.0 15.64180292 2.52207287 9.77687206
576 1 1 0.0 16.10418883 1.31157849 12.4393211
577 1 1 0.0 0.03142048 24.77977549 37.15725741
578 1 1 0.0 1.13220183 23.45619304 39.56643615
579 1 1 0.0 12.4506053 32.896531 1.46881008
580 1 1 0.0 11.2025712 30.41310371 0.44766757
581 1 1 0.0 37.86397073 17.97102711 17.11424066
582 1 1 0.0 40.38469457 17.1538908 18.43559295
583 1 1 0.0 3.58632162 28.06610416 26.39220386
584 1 1 0.0 2.37096712 25.45427523 27.07703623
585 1 1 0.0 6.47078465 36.84232445 37.87591066
586 1 1 0.0 5.36165207 34.90606603 39.82230747
587 1 1 0.0 28.06676377 1.03650653 15.01756262
588 1 1 0.0 25.8558913 0.79948821 16.97296475
589 1 1 0.0 23.52194034 16.48274157 7.33490562
590 1 1 0.0 23.58763341 16.06255656 10.26524029
591 1 1 0.0 19.11946513 0.39825447 40.02158439
592 1 1 0.0 21.27944706 1.47250521 38.30455332
593 1 1 0.0 18.77836088 8.98735685 35.87995753
594 1 1 0.0 18.84108952 9.3370394 38.81960369
595 1 1 0.0 5.72971296 19.66667995 8.57988196
596 1 1 0.0 3.87460723 21.96761802 8.7587646
597 1 1 0.0 30.1266774 40.57085442 31.12367558
598 1 1 0.0 29.58195169 37.71060301 30.58518878
599 1 1 0.0 10.03876795 27.15017571 15.85038871
600 1 1 0.0 11.98664977 27.9674489 17.92537141
601 1 1 0.0 9.49410947 27.40069625 31.16256729
602 1 1 0.0 11.61466286 26.2686456 32.89156901
603 1 1 0.0 11.47419785 32.41998988 5.85101938
604 1 1 0.0 11.55627895 34.90643571 4.24522298
605 1 1 0.0 -0.20733141 9.19702932 10.60381236
606 1 1 0.0 2.5163131 8.14643529 11.0995391
607 1 1 0.0 17.74730138 40.6803227 21.03402715
608 1 1 0.0 17.06912754 38.041192 19.87523397
609 1 1 0.0 38.91651072 12.24565902 13.84388525
610 1 1 0.0 39.26208231 9.40415934 14.60163991
611 1 1 0.0 39.36319824 32.34792669 25.57799179
612 1 1 0.0 38.93814355 31.44817284 28.36680942
613 1 1 0.0 22.30010596 32.83615487 7.7820441
614 1 1 0.0 24.23688331 34.86382821 6.83064166
615 1 1 0.0 0.85938807 2.02193891 13.70654559
616 1 1 0.0 0.11684321 -0.77189513 13.06556918
617 1 1 0.0 25.55818712 28.61731619 10.24853786
618 1 1 0.0 25.88872839 25.86064506 11.27773124
619 1 1 0.0 18.85408687 33.9912635 27.56815121
620 1 1 0.0 17.92261249 31.23748186 27.00532402
621 1 1 0.0 1.69940096 11.51146942 23.41933737
622 1 1 0.0 -0.58426818 12.17904269 25.18198692