LAMMPS data file (fixed type mapping)

784 atoms
5 atom types

0.000000 20.000000 xlo xhi
0.000000 20.000000 ylo yhi
0.000000 20.000000 zlo zhi

Masses

1 28.0850  # Si
2 15.9990  # O
3 1.0080  # H
4 26.9815  # Al
5 22.9898  # Na

Atoms # full

1 1 1 0.0000 12.889767 4.431948 3.667872
2 1 1 0.0000 13.916659 0.724215 17.521380
3 1 1 0.0000 4.696360 5.420205 11.343198
4 1 1 0.0000 9.431034 10.888599 0.639731
5 1 1 0.0000 19.039403 18.606810 17.159628
6 1 1 0.0000 10.107128 3.075943 10.536310
7 1 1 0.0000 13.143729 6.175208 8.986905
8 1 1 0.0000 3.305255 0.358841 7.086418
9 1 1 0.0000 19.408425 15.938103 3.093294
10 1 1 0.0000 12.778239 7.733610 2.668291
11 1 1 0.0000 13.565996 16.674743 10.269569
12 1 1 0.0000 6.597788 8.634457 14.650689
13 1 1 0.0000 2.887038 16.922555 15.952101
14 1 1 0.0000 3.077598 18.490139 10.652523
15 1 1 0.0000 4.501907 11.095506 6.499042
16 1 1 0.0000 7.150912 18.255081 4.346132
17 1 1 0.0000 3.958141 3.098542 17.381326
18 1 1 0.0000 7.213012 15.681963 17.273577
19 1 1 0.0000 9.553953 10.164960 9.571040
20 1 1 0.0000 11.944759 17.855214 14.760447
21 1 1 0.0000 19.337234 3.437959 11.738057
22 1 1 0.0000 16.922751 9.702246 9.089423
23 1 1 0.0000 1.821719 17.307295 6.847126
24 1 1 0.0000 5.267734 11.333177 2.869956
25 1 1 0.0000 11.519080 13.937447 19.870382
26 1 1 0.0000 2.160216 2.282725 0.332734
27 1 1 0.0000 15.272993 7.419529 19.530039
28 1 1 0.0000 17.879103 6.580395 0.320907
29 1 1 0.0000 19.200720 6.543264 8.472876
30 1 1 0.0000 18.018339 2.201905 16.796135
31 1 1 0.0000 10.566889 7.346648 14.931565
32 1 1 0.0000 17.950435 0.409223 0.660749
33 1 1 0.0000 19.294677 17.289960 10.261616
34 1 1 0.0000 1.936830 18.041841 0.700609
35 1 1 0.0000 16.437356 11.450649 15.268655
36 1 1 0.0000 0.790635 11.626784 16.784236
37 1 1 0.0000 3.093675 -0.124204 12.191733
38 1 1 0.0000 13.344883 15.028009 4.854321
39 1 1 0.0000 0.821684 10.872913 10.295743
40 1 1 0.0000 1.652716 5.453928 3.497338
41 1 1 0.0000 18.051021 2.005286 5.647368
42 1 1 0.0000 1.662168 6.067688 18.214918
43 1 1 0.0000 13.046453 0.330899 11.594781
44 1 1 0.0000 19.394266 13.509602 17.455579
45 1 1 0.0000 14.329243 12.130506 7.820440
46 1 1 0.0000 -0.145431 8.881483 1.923922
47 1 1 0.0000 17.539459 19.729705 2.321230
48 1 1 0.0000 3.968805 7.562562 0.382336
49 1 1 0.0000 14.580617 18.884337 17.140996
50 1 2 0.0000 13.584569 3.589025 4.896171
51 1 2 0.0000 13.245853 6.015699 3.907090
52 1 2 0.0000 13.532219 3.970823 2.228851
53 1 2 0.0000 8.980802 2.585591 3.439027
54 1 2 0.0000 11.492884 1.502533 4.391900
55 1 2 0.0000 11.299587 2.283614 1.684006
56 1 2 0.0000 11.289517 4.217907 3.655598
57 1 2 0.0000 12.988821 -0.629985 17.606484
58 1 2 0.0000 14.779767 0.631480 16.128995
59 1 2 0.0000 12.964956 2.060370 17.449882
60 1 2 0.0000 15.417660 1.014212 21.571604
61 1 2 0.0000 12.990321 -0.212659 20.574433
62 1 2 0.0000 13.336974 2.569697 20.230236
63 1 2 0.0000 14.913574 0.819706 18.787795
64 1 2 0.0000 5.433227 4.617856 10.112244
65 1 2 0.0000 4.616578 4.385870 12.614447
66 1 2 0.0000 5.594599 6.719579 11.791477
67 1 2 0.0000 1.423960 7.368477 9.284789
68 1 2 0.0000 3.999841 6.506114 8.278458
69 1 2 0.0000 3.930847 8.484801 10.293447
70 1 2 0.0000 3.212318 5.891666 10.916453
71 1 2 0.0000 8.927299 10.071456 1.974090
72 1 2 0.0000 9.305145 9.860070 -0.632498
73 1 2 0.0000 8.451862 12.176688 0.360070
74 1 2 0.0000 12.981958 12.875739 2.117441
75 1 2 0.0000 10.628923 11.973283 3.545844
76 1 2 0.0000 10.324397 13.959969 1.560778
77 1 2 0.0000 10.959874 11.379550 0.808198
78 1 2 0.0000 20.568973 18.343571 16.618233
79 1 2 0.0000 18.874970 17.776137 18.565058
80 1 2 0.0000 18.816024 20.202692 17.474938
81 1 2 0.0000 16.734420 18.169239 13.521360
82 1 2 0.0000 19.500396 18.949680 13.884434
83 1 2 0.0000 17.479432 20.587340 14.986214
84 1 2 0.0000 17.951196 18.096157 16.081758
85 1 2 0.0000 10.644425 1.536815 10.325634
86 1 2 0.0000 10.879800 3.681416 11.851099
87 1 2 0.0000 10.502414 3.997739 9.236233
88 1 2 0.0000 5.846092 2.607236 9.931905
89 1 2 0.0000 8.050740 1.028823 8.912260
90 1 2 0.0000 7.874166 3.746143 8.160505
91 1 2 0.0000 8.509768 3.101310 10.769905
92 1 2 0.0000 12.688228 7.705623 8.596602
93 1 2 0.0000 12.683277 5.203449 7.747567
94 1 2 0.0000 14.777159 6.088654 9.130347
95 1 2 0.0000 11.951704 5.938707 13.141969
96 1 2 0.0000 12.668602 8.246442 11.544485
97 1 2 0.0000 14.613947 6.243292 11.972463
98 1 2 0.0000 12.439740 5.697133 10.358988
99 1 2 0.0000 4.173858 -0.036867 8.424675
100 1 2 0.0000 2.450528 -0.973399 6.654139
101 1 2 0.0000 2.243438 1.561963 7.434561
102 1 2 0.0000 6.237418 2.518134 4.745204
103 1 2 0.0000 6.058624 2.147424 7.612631
104 1 2 0.0000 3.971736 3.522848 6.296102
105 1 2 0.0000 4.279268 0.809682 5.880265
106 1 2 0.0000 19.844450 17.295460 3.911492
107 1 2 0.0000 18.740882 16.422749 1.674917
108 1 2 0.0000 20.733489 15.029155 2.755389
109 1 2 0.0000 17.582004 13.574533 6.226844
110 1 2 0.0000 19.604060 15.641662 6.399473
111 1 2 0.0000 20.196855 13.290437 4.950169
112 1 2 0.0000 18.342452 15.071755 3.941769
113 1 2 0.0000 14.347569 7.253318 2.576064
114 1 2 0.0000 12.555342 8.370748 4.163839
115 1 2 0.0000 12.477605 8.905885 1.558538
116 1 2 0.0000 10.725737 4.371738 0.872054
117 1 2 0.0000 13.433033 5.322399 0.474147
118 1 2 0.0000 11.288277 7.023870 -0.222387
119 1 2 0.0000 11.779730 6.485257 2.441659
120 1 2 0.0000 14.645866 16.536890 9.037959
121 1 2 0.0000 13.850593 15.432157 11.302658
122 1 2 0.0000 13.805424 18.083182 11.078974
123 1 2 0.0000 9.910850 17.579030 8.133315
124 1 2 0.0000 12.666980 18.066541 7.386578
125 1 2 0.0000 11.649116 19.334963 9.696384
126 1 2 0.0000 12.050521 16.602345 9.717428
127 1 2 0.0000 6.246195 10.152863 14.128375
128 1 2 0.0000 8.027937 8.208226 13.968568
129 1 2 0.0000 6.781555 8.624160 16.282339
130 1 2 0.0000 2.764662 6.661754 14.254456
131 1 2 0.0000 3.377744 9.464054 14.657913
132 1 2 0.0000 4.141192 7.614061 16.651606
133 1 2 0.0000 5.442558 7.593886 14.215460
134 1 2 0.0000 1.467924 17.538547 15.396532
135 1 2 0.0000 2.516703 15.634172 16.898257
136 1 2 0.0000 3.805661 16.393958 14.697957
137 1 2 0.0000 5.026891 20.517454 17.065267
138 1 2 0.0000 2.932813 20.136470 15.100267
139 1 2 0.0000 5.380129 18.770244 14.747825
140 1 2 0.0000 3.697792 18.025705 16.807965
141 1 2 0.0000 2.227947 17.949096 11.951504
142 1 2 0.0000 2.023283 19.296055 9.687532
143 1 2 0.0000 4.242512 19.542076 11.134773
144 1 2 0.0000 5.474655 15.022533 9.667005
145 1 2 0.0000 4.332406 15.830008 12.203693
146 1 2 0.0000 6.243207 17.516486 10.985179
147 1 2 0.0000 3.740704 17.259333 9.844950
148 1 2 0.0000 5.598972 11.703870 7.561271
149 1 2 0.0000 3.031907 11.679213 6.935706
150 1 2 0.0000 4.833617 11.619324 4.978600
151 1 2 0.0000 5.750637 6.959663 6.221749
152 1 2 0.0000 7.289075 9.323282 6.883602
153 1 2 0.0000 6.107408 9.154333 4.323278
154 1 2 0.0000 4.493680 9.481520 6.540844
155 1 2 0.0000 5.794848 17.616596 3.671289
156 1 2 0.0000 6.681769 19.079654 5.684890
157 1 2 0.0000 8.171928 17.055979 4.810720
158 1 2 0.0000 9.225246 19.783063 0.867077
159 1 2 0.0000 7.311462 17.619511 1.086187
160 1 2 0.0000 9.763963 17.398386 2.470558
161 1 2 0.0000 7.894795 19.248813 3.313708
162 1 2 0.0000 4.573892 4.299245 18.320021
163 1 2 0.0000 2.323313 3.215141 17.458993
164 1 2 0.0000 4.416240 3.308730 15.818596
165 1 2 0.0000 6.445835 -0.259748 18.510341
166 1 2 0.0000 7.014484 2.579748 18.584067
167 1 2 0.0000 6.491247 1.371787 16.084628
168 1 2 0.0000 4.437713 1.650551 17.910569
169 1 2 0.0000 7.716669 16.051948 18.793915
170 1 2 0.0000 6.449057 17.008060 16.681863
171 1 2 0.0000 8.503641 15.358372 16.311430
172 1 2 0.0000 5.598593 11.703689 17.828918
173 1 2 0.0000 7.643108 13.103909 19.329210
174 1 2 0.0000 8.112944 12.549002 16.599471
175 1 2 0.0000 6.204252 14.421474 17.291940
176 1 2 0.0000 8.903575 9.974295 11.068585
177 1 2 0.0000 9.888863 8.665322 8.995531
178 1 2 0.0000 8.465129 10.871686 8.565475
179 1 2 0.0000 12.304323 13.444356 10.220996
180 1 2 0.0000 9.870867 12.754345 11.632985
181 1 2 0.0000 9.699680 13.420553 8.893093
182 1 2 0.0000 10.903474 11.048774 9.637615
183 1 2 0.0000 12.167985 16.370751 14.090724
184 1 2 0.0000 12.174491 17.695056 16.377191
185 1 2 0.0000 13.061423 18.911677 14.183293
186 1 2 0.0000 8.393088 19.222552 12.697092
187 1 2 0.0000 10.415659 17.327278 11.855261
188 1 2 0.0000 11.187145 20.002562 12.332556
189 1 2 0.0000 10.455644 18.403366 14.462403
190 1 2 0.0000 17.798867 2.908731 11.973285
191 1 2 0.0000 19.652789 4.541629 12.910501
192 1 2 0.0000 20.396441 2.194095 11.902499
193 1 2 0.0000 19.420473 4.011404 7.447877
194 1 2 0.0000 17.787611 2.236470 9.052529
195 1 2 0.0000 20.590187 1.882637 9.075198
196 1 2 0.0000 19.496990 4.114312 10.280733
197 1 2 0.0000 16.724858 8.290151 9.907232
198 1 2 0.0000 16.597213 9.395665 7.510713
199 1 2 0.0000 15.852012 10.824569 9.628003
200 1 2 0.0000 20.602136 11.202207 10.808042
201 1 2 0.0000 18.614195 9.424256 11.938757
202 1 2 0.0000 17.841851 12.054760 11.257526
203 1 2 0.0000 18.431967 10.253295 9.248731
204 1 2 0.0000 0.489220 18.231791 7.114971
205 1 2 0.0000 2.654869 18.005637 5.618116
206 1 2 0.0000 2.781419 17.295908 8.179419
207 1 2 0.0000 0.163271 13.311697 7.008885
208 1 2 0.0000 -0.762547 15.758083 8.253712
209 1 2 0.0000 1.775265 14.750787 8.978288
210 1 2 0.0000 1.405544 15.798781 6.449694
211 1 2 0.0000 6.088410 12.423862 3.785862
212 1 2 0.0000 6.168885 9.962609 2.827991
213 1 2 0.0000 3.823694 10.979479 3.566953
214 1 2 0.0000 3.981594 13.778650 -0.462749
215 1 2 0.0000 4.599252 14.533794 2.264849
216 1 2 0.0000 2.451699 12.756007 1.809184
217 1 2 0.0000 5.039325 11.894057 1.373289
218 1 2 0.0000 12.473214 13.675178 21.182948
219 1 2 0.0000 10.183316 13.001558 20.049652
220 1 2 0.0000 11.044568 15.508542 19.818817
221 1 2 0.0000 14.414154 13.859295 16.652642
222 1 2 0.0000 14.763998 14.529094 19.449161
223 1 2 0.0000 13.042632 16.129732 17.882316
224 1 2 0.0000 12.293005 13.546184 18.508502
225 1 2 0.0000 1.297464 3.097563 1.470137
226 1 2 0.0000 1.374390 2.470108 -1.095431
227 1 2 0.0000 3.660523 2.933380 0.184796
228 1 2 0.0000 3.077414 -1.406161 2.404515
229 1 2 0.0000 2.532003 1.233387 3.466044
230 1 2 0.0000 4.794538 0.884517 1.810941
231 1 2 0.0000 2.268929 0.715614 0.705708
232 1 2 0.0000 16.337234 6.258628 20.000873
233 1 2 0.0000 14.392041 7.831629 20.851548
234 1 2 0.0000 16.079945 8.752538 19.012278
235 1 2 0.0000 13.844274 5.824783 15.767465
236 1 2 0.0000 16.361431 5.388118 17.133033
237 1 2 0.0000 15.721871 8.005511 16.284292
238 1 2 0.0000 14.301136 6.870748 18.363377
239 1 2 0.0000 18.259306 6.129546 1.855236
240 1 2 0.0000 18.769764 5.645764 -0.691752
241 1 2 0.0000 16.289997 6.293994 0.022783
242 1 2 0.0000 17.876558 10.896932 0.650932
243 1 2 0.0000 17.393685 8.879888 2.673283
244 1 2 0.0000 15.632313 9.031814 0.469961
245 1 2 0.0000 18.217110 8.140473 0.078674
246 1 2 0.0000 20.730591 6.048743 8.130922
247 1 2 0.0000 18.378435 5.230433 9.013811
248 1 2 0.0000 19.222039 7.667275 9.669666
249 1 2 0.0000 18.295544 9.026941 5.044550
250 1 2 0.0000 20.852035 8.368718 6.237289
251 1 2 0.0000 18.965850 9.791704 7.785696
252 1 2 0.0000 18.482874 7.145642 7.158112
253 1 2 0.0000 19.011047 3.501928 16.958790
254 1 2 0.0000 16.481521 2.773051 16.730768
255 1 2 0.0000 18.336947 1.417350 15.389323
256 1 2 0.0000 19.713855 -0.560127 19.666295
257 1 2 0.0000 20.967718 1.609399 18.212845
258 1 2 0.0000 19.888365 -0.551348 16.747816
259 1 2 0.0000 18.183094 1.191788 18.044849
260 1 2 0.0000 10.102797 6.238021 13.810159
261 1 2 0.0000 11.280681 8.582596 14.122107
262 1 2 0.0000 9.254547 7.937790 15.721798
263 1 2 0.0000 12.290437 4.823037 17.997863
264 1 2 0.0000 10.261979 4.219408 16.019852
265 1 2 0.0000 9.719608 6.214470 17.944873
266 1 2 0.0000 11.604888 6.699765 15.985542
267 1 2 0.0000 17.097859 -0.173738 -0.618023
268 1 2 0.0000 18.924698 -0.802752 1.184408
269 1 2 0.0000 18.897800 1.663693 0.186444
270 1 2 0.0000 14.880121 2.505772 2.878644
271 1 2 0.0000 15.043763 1.904169 0.049717
272 1 2 0.0000 17.024299 3.561522 1.194618
273 1 2 0.0000 16.960675 0.878388 1.846930
274 1 2 0.0000 18.711061 16.252954 9.127598
275 1 2 0.0000 19.208710 16.521297 11.708701
276 1 2 0.0000 20.869974 17.637522 9.955347
277 1 2 0.0000 17.404506 21.008706 9.104208
278 1 2 0.0000 18.075826 18.690025 7.502777
279 1 2 0.0000 20.167913 20.122915 8.747825
280 1 2 0.0000 18.423869 18.648950 10.301694
281 1 2 0.0000 2.631867 17.807466 2.171656
282 1 2 0.0000 2.227751 19.598640 0.271618
283 1 2 0.0000 2.631415 17.060575 -0.417795
284 1 2 0.0000 -1.893916 16.093443 1.220746
285 1 2 0.0000 0.632335 15.607525 2.552464
286 1 2 0.0000 0.477236 15.201635 -0.238833
287 1 2 0.0000 0.346439 17.771263 0.765496
288 1 2 0.0000 15.750934 12.182008 16.570933
289 1 2 0.0000 15.236976 11.164234 14.187292
290 1 2 0.0000 17.533985 12.452123 14.568216
291 1 2 0.0000 19.060456 8.573166 17.160968
292 1 2 0.0000 18.058261 11.104250 18.151300
293 1 2 0.0000 19.696821 11.107899 15.850158
294 1 2 0.0000 17.144815 10.063079 15.693998
295 1 2 0.0000 1.324594 12.448264 15.464370
296 1 2 0.0000 0.090977 10.244996 16.242546
297 1 2 0.0000 2.055340 11.220175 17.749302
298 1 2 0.0000 -1.021068 14.793949 19.114089
299 1 2 0.0000 1.104308 14.916933 17.149608
300 1 2 0.0000 1.523494 13.406703 19.499848
301 1 2 0.0000 -0.281210 12.504131 17.613800
302 1 2 0.0000 4.440781 0.328681 13.017679
303 1 2 0.0000 3.595359 -0.945868 10.863023
304 1 2 0.0000 2.179426 -1.134615 13.107909
305 1 2 0.0000 0.713504 3.488498 12.348514
306 1 2 0.0000 2.766107 2.537378 14.157858
307 1 2 0.0000 0.424371 0.989891 13.838956
308 1 2 0.0000 2.226474 1.165135 11.753175
309 1 2 0.0000 12.737883 15.009156 3.326846
310 1 2 0.0000 12.146771 14.525135 5.856286
311 1 2 0.0000 14.597995 13.974387 4.979825
312 1 2 0.0000 15.455102 18.807563 4.912290
313 1 2 0.0000 14.812794 17.073678 2.682353
314 1 2 0.0000 16.498988 16.083273 4.720978
315 1 2 0.0000 13.825442 16.513755 5.264673
316 1 2 0.0000 0.856607 12.092568 9.194285
317 1 2 0.0000 -0.629063 10.122463 10.139393
318 1 2 0.0000 2.004409 9.781199 9.970963
319 1 2 0.0000 2.452140 12.814136 13.804971
320 1 2 0.0000 2.856422 13.407266 10.998498
321 1 2 0.0000 3.691764 10.894108 11.981546
322 1 2 0.0000 0.991915 11.446321 11.795407
323 1 2 0.0000 2.772756 4.392114 4.063067
324 1 2 0.0000 2.454638 6.569233 2.599949
325 1 2 0.0000 0.580710 4.681810 2.522250
326 1 2 0.0000 -0.782483 6.116126 7.014825
327 1 2 0.0000 0.838388 3.829718 6.282258
328 1 2 0.0000 -1.339429 4.528018 4.624056
329 1 2 0.0000 0.875977 6.174958 4.715352
330 1 2 0.0000 19.684915 1.892122 5.787263
331 1 2 0.0000 17.702806 3.572450 5.308202
332 1 2 0.0000 17.522961 1.078153 4.399274
333 1 2 0.0000 16.716875 -0.348818 9.026667
334 1 2 0.0000 19.179091 -0.508481 7.508927
335 1 2 0.0000 16.737673 -1.006893 6.178060
336 1 2 0.0000 17.323446 1.558398 7.017657
337 1 2 0.0000 0.700641 5.337921 19.330666
338 1 2 0.0000 2.000976 4.948738 17.063637
339 1 2 0.0000 0.861936 7.312790 17.503925
340 1 2 0.0000 4.444941 8.225499 20.733140
341 1 2 0.0000 1.726472 7.380523 21.269308
342 1 2 0.0000 2.181272 9.214111 19.169010
343 1 2 0.0000 3.028052 6.599761 18.891693
344 1 2 0.0000 12.664162 1.839854 12.122887
345 1 2 0.0000 11.725915 -0.613259 11.833601
346 1 2 0.0000 13.375770 0.359272 9.986395
347 1 2 0.0000 17.022406 -0.187820 13.227001
348 1 2 0.0000 15.608095 2.239062 12.518832
349 1 2 0.0000 16.183343 0.368081 10.482005
350 1 2 0.0000 14.308052 -0.261875 12.409492
351 1 2 0.0000 20.686207 12.641994 17.984852
352 1 2 0.0000 19.393670 13.423979 15.816995
353 1 2 0.0000 17.998777 12.842818 18.007093
354 1 2 0.0000 19.638245 17.047855 19.938048
355 1 2 0.0000 20.589961 14.358287 20.440041
356 1 2 0.0000 17.815406 14.767852 20.102038
357 1 2 0.0000 19.500276 15.048756 17.931537
358 1 2 0.0000 15.920677 11.816854 7.554086
359 1 2 0.0000 14.086590 12.053440 9.441388
360 1 2 0.0000 13.957838 13.648057 7.315211
361 1 2 0.0000 12.439627 9.761843 4.728482
362 1 2 0.0000 15.089825 10.928252 4.814934
363 1 2 0.0000 12.852870 12.652065 4.883088
364 1 2 0.0000 13.395459 11.050289 7.066819
365 1 2 0.0000 -1.205088 8.064384 2.878628
366 1 2 0.0000 -0.271153 8.251725 0.413993
367 1 2 0.0000 -0.552799 10.470661 1.855175
368 1 2 0.0000 3.362456 9.052896 4.455080
369 1 2 0.0000 0.564368 8.833635 5.172132
370 1 2 0.0000 1.427930 11.142566 3.792552
371 1 2 0.0000 1.365254 8.718642 2.469890
372 1 2 0.0000 17.375778 21.190810 1.586134
373 1 2 0.0000 17.220147 19.952613 3.915169
374 1 2 0.0000 16.442744 18.665989 1.719662
375 1 2 0.0000 21.183413 18.244065 0.516821
376 1 2 0.0000 19.239113 20.130863 -0.508473
377 1 2 0.0000 18.403975 17.484628 0.020800
378 1 2 0.0000 19.035269 19.153018 2.129523
379 1 2 0.0000 3.084144 6.222612 0.030350
380 1 2 0.0000 3.754592 8.620892 -0.853116
381 1 2 0.0000 3.415711 8.261360 1.761440
382 1 2 0.0000 7.675558 5.821712 1.786202
383 1 2 0.0000 4.991017 4.733314 1.799165
384 1 2 0.0000 5.506285 7.074310 3.293951
385 1 2 0.0000 5.533723 7.195719 0.534734
386 1 2 0.0000 14.993390 17.307159 16.930961
387 1 2 0.0000 14.454571 19.553426 15.648106
388 1 2 0.0000 13.118631 18.994485 17.880337
389 1 2 0.0000 17.212937 20.056473 20.371848
390 1 2 0.0000 16.162395 17.445102 19.687278
391 1 2 0.0000 14.345759 19.485381 20.406471
392 1 2 0.0000 15.700224 19.662311 18.005869
393 1 3 0.0000 13.032937 2.829697 5.126963
394 1 3 0.0000 12.435901 6.520410 3.964796
395 1 3 0.0000 12.921243 3.366932 1.772025
396 1 3 0.0000 8.575307 2.213781 2.655878
397 1 3 0.0000 10.906998 1.219068 5.094160
398 1 3 0.0000 11.497745 1.354096 1.555749
399 1 3 0.0000 12.889635 -0.903048 18.528298
400 1 3 0.0000 15.713632 0.681503 16.327688
401 1 3 0.0000 12.931640 2.489957 18.322242
402 1 3 0.0000 15.357201 1.778585 22.144377
403 1 3 0.0000 13.300101 -0.900674 21.163887
404 1 3 0.0000 12.540416 2.585096 20.764070
405 1 3 0.0000 5.065454 4.905212 9.265892
406 1 3 0.0000 3.705319 4.279507 12.883484
407 1 3 0.0000 5.210133 7.532026 11.418942
408 1 3 0.0000 1.216789 8.302580 9.307648
409 1 3 0.0000 3.426305 6.174218 7.587310
410 1 3 0.0000 4.367785 8.990042 9.605307
411 1 3 0.0000 9.431075 10.360966 2.746447
412 1 3 0.0000 10.158005 9.767623 -1.054600
413 1 3 0.0000 8.883693 12.993170 0.665924
414 1 3 0.0000 13.169616 13.812766 2.064938
415 1 3 0.0000 11.317014 11.647085 4.126284
416 1 3 0.0000 10.005406 14.456481 2.316714
417 1 3 0.0000 20.576936 18.324832 15.651937
418 1 3 0.0000 18.143888 17.164442 18.491342
419 1 3 0.0000 18.318650 20.617044 16.748577
420 1 3 0.0000 16.109837 18.802129 13.167329
421 1 3 0.0000 19.593408 18.316167 13.172539
422 1 3 0.0000 17.877527 21.224772 14.390462
423 1 3 0.0000 9.931986 0.984892 9.976415
424 1 3 0.0000 10.235640 3.963897 12.498670
425 1 3 0.0000 9.724080 4.113995 8.664090
426 1 3 0.0000 5.302690 3.105490 9.321620
427 1 3 0.0000 7.463102 0.332277 9.206010
428 1 3 0.0000 7.813545 3.347952 7.290166
429 1 3 0.0000 12.437670 8.187894 9.395838
430 1 3 0.0000 12.106021 4.516366 8.077379
431 1 3 0.0000 15.027372 6.091502 10.070588
432 1 3 0.0000 12.509070 5.684251 13.877215
433 1 3 0.0000 11.879103 8.575063 11.975163
434 1 3 0.0000 15.070705 6.981962 12.379230
435 1 3 0.0000 5.019253 0.431542 8.418174
436 1 3 0.0000 2.668786 -1.215675 5.755389
437 1 3 0.0000 2.586676 2.411332 7.106800
438 1 3 0.0000 6.133262 3.395414 4.377071
439 1 3 0.0000 6.988019 1.963621 7.473975
440 1 3 0.0000 4.259679 4.221619 6.886464
441 1 3 0.0000 19.736769 17.155299 4.861703
442 1 3 0.0000 17.853160 16.074911 1.603909
443 1 3 0.0000 20.791228 14.283987 3.378332
444 1 3 0.0000 17.808071 12.674777 6.462052
445 1 3 0.0000 19.022412 15.911480 7.110576
446 1 3 0.0000 20.884570 13.230825 5.615912
447 1 3 0.0000 14.417401 6.462476 2.024851
448 1 3 0.0000 11.853064 7.900221 4.610488
449 1 3 0.0000 12.012543 8.525577 0.793195
450 1 3 0.0000 10.102294 4.410796 0.146944
451 1 3 0.0000 13.593867 4.383473 0.570769
452 1 3 0.0000 11.699931 6.944576 -1.084925
453 1 3 0.0000 14.244055 16.840456 8.213012
454 1 3 0.0000 13.053862 14.914043 11.406885
455 1 3 0.0000 13.138699 18.737974 10.808069
456 1 3 0.0000 9.329227 18.321580 8.295569
457 1 3 0.0000 12.329694 17.702500 6.567739
458 1 3 0.0000 11.874491 20.115373 9.186594
459 1 3 0.0000 5.289939 10.253599 14.030560
460 1 3 0.0000 7.914479 7.404204 13.463829
461 1 3 0.0000 5.979384 8.269391 16.703441
462 1 3 0.0000 2.303482 6.177932 14.939453
463 1 3 0.0000 2.723363 9.530535 13.962103
464 1 3 0.0000 3.552396 8.160765 17.175201
465 1 3 0.0000 1.537500 18.498747 15.310993
466 1 3 0.0000 2.877617 15.766069 17.773717
467 1 3 0.0000 4.501419 17.044676 14.500086
468 1 3 0.0000 5.904208 20.766790 16.775202
469 1 3 0.0000 2.616182 20.927824 15.536490
470 1 3 0.0000 5.382878 19.288560 13.940942
471 1 3 0.0000 2.583636 17.100211 12.246496
472 1 3 0.0000 2.021858 18.902165 8.816363
473 1 3 0.0000 5.106905 19.095607 11.147307
474 1 3 0.0000 6.426044 15.002486 9.564794
475 1 3 0.0000 4.094499 14.902575 12.196404
476 1 3 0.0000 6.711243 17.328210 11.800786
477 1 3 0.0000 6.302016 11.058347 7.713487
478 1 3 0.0000 2.435971 10.950941 7.104716
479 1 3 0.0000 5.277273 10.914691 4.475282
480 1 3 0.0000 5.947574 6.480509 5.417002
481 1 3 0.0000 7.588872 8.726369 7.569606
482 1 3 0.0000 7.026942 9.214996 4.057763
483 1 3 0.0000 5.883329 17.599611 2.708988
484 1 3 0.0000 6.964251 19.990364 5.614905
485 1 3 0.0000 8.890386 16.962978 4.161231
486 1 3 0.0000 10.127973 19.588679 0.615504
487 1 3 0.0000 6.966491 18.075984 0.318455
488 1 3 0.0000 9.845299 16.630007 1.902493
489 1 3 0.0000 5.394521 4.003153 18.735999
490 1 3 0.0000 1.958579 2.390245 17.776170
491 1 3 0.0000 5.147887 2.704290 15.604094
492 1 3 0.0000 6.940503 -0.823094 17.915415
493 1 3 0.0000 7.336306 2.318344 19.447134
494 1 3 0.0000 7.381538 1.684739 15.913854
495 1 3 0.0000 7.676392 15.265325 19.354044
496 1 3 0.0000 5.555970 16.777123 16.430566
497 1 3 0.0000 8.600386 14.396667 16.199940
498 1 3 0.0000 5.834268 10.922242 17.329129
499 1 3 0.0000 7.115988 12.751102 20.046466
500 1 3 0.0000 8.846183 12.060190 16.977813
501 1 3 0.0000 9.165651 10.710795 11.636938
502 1 3 0.0000 10.818224 8.606043 8.779060
503 1 3 0.0000 8.676740 11.815407 8.459281
504 1 3 0.0000 12.342454 14.258981 9.720074
505 1 3 0.0000 10.454349 12.927445 12.372153
506 1 3 0.0000 9.141351 14.114382 9.248889
507 1 3 0.0000 11.579132 16.260431 13.332289
508 1 3 0.0000 11.391044 17.985551 16.841852
509 1 3 0.0000 12.659378 19.479229 13.502917
510 1 3 0.0000 8.296287 20.048444 12.223254
511 1 3 0.0000 9.621959 16.847299 11.617681
512 1 3 0.0000 11.428610 19.942284 11.406392
513 1 3 0.0000 17.384572 2.713831 11.122101
514 1 3 0.0000 19.901735 5.372705 12.508725
515 1 3 0.0000 20.679396 1.882275 11.025360
516 1 3 0.0000 20.059644 3.640835 6.839493
517 1 3 0.0000 17.121354 2.602088 8.470111
518 1 3 0.0000 20.335913 1.025066 8.729311
519 1 3 0.0000 17.356023 8.242104 10.637618
520 1 3 0.0000 17.354865 9.629787 6.976638
521 1 3 0.0000 16.298647 11.446911 10.227898
522 1 3 0.0000 20.734457 12.067094 11.195925
523 1 3 0.0000 19.415792 8.956598 12.174390
524 1 3 0.0000 17.654464 12.084657 12.197585
525 1 3 0.0000 -0.249310 17.672117 7.389707
526 1 3 0.0000 2.763432 17.375926 4.906946
527 1 3 0.0000 2.659600 16.463296 8.667871
528 1 3 0.0000 0.472732 12.592145 7.558857
529 1 3 0.0000 -1.587387 15.422262 7.902077
530 1 3 0.0000 1.352394 14.718118 9.838423
531 1 3 0.0000 5.938989 13.316476 3.446664
532 1 3 0.0000 6.365011 9.736509 1.919972
533 1 3 0.0000 3.110357 11.460659 3.112769
534 1 3 0.0000 3.084964 13.870652 -0.784589
535 1 3 0.0000 5.071563 15.216164 1.787273
536 1 3 0.0000 1.966555 13.469190 2.228379
537 1 3 0.0000 13.404083 13.733913 20.929621
538 1 3 0.0000 10.097721 12.418794 19.296562
539 1 3 0.0000 11.577502 15.993881 19.165293
540 1 3 0.0000 14.539916 14.536081 15.987710
541 1 3 0.0000 15.516652 13.952435 19.315892
542 1 3 0.0000 13.678346 16.801390 18.136211
543 1 3 0.0000 1.356075 2.638355 2.318567
544 1 3 0.0000 1.153968 1.611740 -1.454185
545 1 3 0.0000 4.308893 2.380069 0.653977
546 1 3 0.0000 3.946779 -1.789235 2.520494
547 1 3 0.0000 1.982418 0.700692 4.041350
548 1 3 0.0000 5.238798 1.179436 2.608046
549 1 3 0.0000 16.485362 5.635484 19.277070
550 1 3 0.0000 13.462847 7.696838 20.671226
551 1 3 0.0000 16.088980 8.776885 18.039657
552 1 3 0.0000 13.838843 6.279617 14.925392
553 1 3 0.0000 16.137973 4.488215 16.894232
554 1 3 0.0000 16.524741 7.877427 15.775653
555 1 3 0.0000 18.222643 6.896778 2.441881
556 1 3 0.0000 19.301457 6.203853 -1.257371
557 1 3 0.0000 15.787400 7.125068 0.080911
558 1 3 0.0000 17.165966 11.483983 0.393209
559 1 3 0.0000 17.990894 9.458535 3.147934
560 1 3 0.0000 15.003536 9.202586 1.173663
561 1 3 0.0000 21.075830 6.545515 7.377153
562 1 3 0.0000 17.609381 5.086075 8.464447
563 1 3 0.0000 19.113202 8.556617 9.290335
564 1 3 0.0000 17.985109 9.931984 5.067317
565 1 3 0.0000 21.055145 8.232951 5.311493
566 1 3 0.0000 19.673803 10.438636 7.784228
567 1 3 0.0000 19.774777 3.266320 17.502248
568 1 3 0.0000 15.962870 2.376128 17.429007
569 1 3 0.0000 18.868923 0.622298 15.566975
570 1 3 0.0000 19.985355 -1.461293 19.492576
571 1 3 0.0000 21.309512 1.772558 19.092243
572 1 3 0.0000 20.803515 -0.628184 16.471562
573 1 3 0.0000 10.179029 5.347271 14.177439
574 1 3 0.0000 12.170571 8.707124 14.448716
575 1 3 0.0000 9.176827 7.516547 16.595400
576 1 3 0.0000 12.057472 4.820698 18.926149
577 1 3 0.0000 10.819493 3.445630 15.934820
578 1 3 0.0000 9.010246 5.605733 18.159263
579 1 3 0.0000 16.215152 0.219700 -0.631351
580 1 3 0.0000 18.742997 -0.983822 2.105431
581 1 3 0.0000 18.487385 2.505947 0.448806
582 1 3 0.0000 14.913576 3.417368 3.168239
583 1 3 0.0000 14.136253 1.654551 0.225502
584 1 3 0.0000 16.667110 4.179319 0.553945
585 1 3 0.0000 18.253681 16.747391 8.434433
586 1 3 0.0000 18.681546 17.039346 12.315173
587 1 3 0.0000 20.940460 18.513672 9.538142
588 1 3 0.0000 17.847187 21.840437 8.936139
589 1 3 0.0000 17.182901 18.855019 7.199058
590 1 3 0.0000 20.435429 20.235509 7.833780
591 1 3 0.0000 2.103304 17.185779 2.689603
592 1 3 0.0000 1.398412 20.046482 0.111240
593 1 3 0.0000 2.054815 16.296274 -0.591119
594 1 3 0.0000 -2.265791 15.416016 0.656129
595 1 3 0.0000 0.040186 15.611043 3.304881
596 1 3 0.0000 0.712933 14.310851 0.027005
597 1 3 0.0000 16.207486 11.911086 17.378586
598 1 3 0.0000 15.201429 10.229610 13.989053
599 1 3 0.0000 18.434547 12.188217 14.825136
600 1 3 0.0000 19.998017 8.469599 16.998970
601 1 3 0.0000 17.908524 10.549478 18.917192
602 1 3 0.0000 20.245394 11.647159 16.422859
603 1 3 0.0000 1.248493 13.399699 15.616423
604 1 3 0.0000 -0.814728 10.204831 16.546141
605 1 3 0.0000 2.101796 11.828092 18.507553
606 1 3 0.0000 -0.829703 15.005106 20.027754
607 1 3 0.0000 0.565490 15.655559 16.865192
608 1 3 0.0000 2.233692 14.042636 19.604379
609 1 3 0.0000 4.292718 1.182915 13.444883
610 1 3 0.0000 3.253820 -0.522003 10.077036
611 1 3 0.0000 1.428303 -0.647360 13.488780
612 1 3 0.0000 -0.189760 3.558384 12.657093
613 1 3 0.0000 3.033170 3.451822 14.061664
614 1 3 0.0000 0.354374 1.171793 14.777962
615 1 3 0.0000 13.125662 15.728060 2.810178
616 1 3 0.0000 11.978215 15.196766 6.515518
617 1 3 0.0000 15.441501 14.458447 4.950664
618 1 3 0.0000 16.371064 18.940857 5.155679
619 1 3 0.0000 14.560241 17.922182 2.317603
620 1 3 0.0000 17.105053 16.013144 3.981054
621 1 3 0.0000 1.358503 12.839534 9.546823
622 1 3 0.0000 -1.090005 10.139846 10.976840
623 1 3 0.0000 2.754155 9.915669 10.576327
624 1 3 0.0000 3.189529 12.505680 14.331377
625 1 3 0.0000 2.701280 14.288608 11.339015
626 1 3 0.0000 4.540425 11.224610 11.681108
627 1 3 0.0000 2.514743 4.078415 4.940086
628 1 3 0.0000 2.286575 7.442674 2.950578
629 1 3 0.0000 -0.246785 4.515695 3.006320
630 1 3 0.0000 -1.733008 6.019861 7.071629
631 1 3 0.0000 1.099786 3.938744 7.196900
632 1 3 0.0000 -1.619917 3.645121 4.872127
633 1 3 0.0000 19.912684 1.229287 6.452779
634 1 3 0.0000 17.108528 3.918931 5.972183
635 1 3 0.0000 17.144674 0.248987 4.739933
636 1 3 0.0000 16.099272 -1.079433 8.999105
637 1 3 0.0000 19.524808 -0.551036 8.400810
638 1 3 0.0000 17.158066 -1.857535 6.038785
639 1 3 0.0000 0.890393 5.691757 20.209834
640 1 3 0.0000 2.948301 4.843429 16.988995
641 1 3 0.0000 1.158664 8.157446 17.884944
642 1 3 0.0000 4.645817 9.159947 20.683670
643 1 3 0.0000 2.153208 7.110325 22.082742
644 1 3 0.0000 1.612412 9.756820 19.718177
645 1 3 0.0000 13.446512 2.264222 12.499693
646 1 3 0.0000 11.959916 -1.356008 12.388266
647 1 3 0.0000 14.338178 0.336656 9.845239
648 1 3 0.0000 17.807365 -0.434335 12.738062
649 1 3 0.0000 15.956059 2.487609 13.375529
650 1 3 0.0000 16.668298 1.118770 10.134147
651 1 3 0.0000 21.049297 13.047256 18.783644
652 1 3 0.0000 19.426378 14.306473 15.450635
653 1 3 0.0000 17.663781 13.354801 18.763610
654 1 3 0.0000 18.937265 17.407680 20.481319
655 1 3 0.0000 21.355894 14.864369 20.712095
656 1 3 0.0000 17.805181 14.416851 20.994458
657 1 3 0.0000 16.026905 11.342993 6.718434
658 1 3 0.0000 13.413890 11.401763 9.633420
659 1 3 0.0000 13.506541 13.608962 6.454125
660 1 3 0.0000 11.808584 10.075779 4.081010
661 1 3 0.0000 15.300426 10.047986 4.502581
662 1 3 0.0000 13.260439 12.970960 4.075677
663 1 3 0.0000 -0.846886 7.983219 3.772633
664 1 3 0.0000 0.583586 7.932338 0.128514
665 1 3 0.0000 0.027379 10.986643 2.441539
666 1 3 0.0000 3.849121 9.841156 4.695482
667 1 3 0.0000 0.940548 8.164304 5.744207
668 1 3 0.0000 1.106391 11.560750 4.593460
669 1 3 0.0000 18.008440 21.265779 0.859319