# LAMMPS data file written by OVITO Basic 3.10.6

6392 atoms
5 atom types

0.0 40.0 xlo xhi
0.0 40.0 ylo yhi
0.0 40.0 zlo zhi

Masses

1 28.0855  # Si
2 15.9994  # O
3 1.00794  # H
4 26.981538  # Al
5 22.98977  # Na

Atoms  # full

1 1 1 0.0 24.86293716 7.55232056 6.78776256
2 1 1 0.0 28.07811083 1.13590508 36.91957688
3 1 1 0.0 8.36445015 11.50505034 21.83832698
4 1 1 0.0 5.5824554 10.72905086 15.51219308
5 1 1 0.0 19.71572229 22.73689053 1.56873963
6 1 1 0.0 38.01711412 37.91945037 33.3275748
7 1 1 0.0 18.91017744 5.51670738 20.43984857
8 1 1 0.0 26.39417463 12.40942975 19.38826539
9 1 1 0.0 31.28290223 36.99439282 36.69509047
10 1 1 0.0 7.22491207 1.26338723 13.59302506
11 1 1 0.0 15.50457233 11.22329174 22.53894748
12 1 1 0.0 39.14616392 31.38299796 7.06760751
13 1 1 0.0 28.56481665 30.11561328 2.09969536
14 1 1 0.0 25.24420106 14.35157098 3.93945825
15 1 1 0.0 26.31714583 34.41899821 19.7138676
16 1 1 0.0 22.95791689 29.49234902 19.03041466
17 1 1 0.0 5.9912255 2.05201995 24.81516939
18 1 1 0.0 11.58363236 16.84211514 29.76171163
19 1 1 0.0 6.11146335 35.51650803 32.1145081
20 1 1 0.0 6.80899947 36.3413185 21.4393677
21 1 1 0.0 19.98303259 15.73401163 8.30995256
22 1 1 0.0 9.53755326 21.04047635 12.51660816
23 1 1 0.0 21.49530961 2.30596864 11.55025119
24 1 1 0.0 19.7294395 37.86705839 10.8549105
25 1 1 0.0 34.01241774 12.9281696 6.71288413
26 1 1 0.0 0.54343921 19.23931409 9.68800799
27 1 1 0.0 14.88561895 36.98968063 7.0965508
28 1 1 0.0 34.70660671 11.67541877 27.11328871
29 1 1 0.0 8.79518643 4.96059751 35.32564128
30 1 1 0.0 14.19720389 30.20107609 35.21578226
31 1 1 0.0 2.86341678 7.02795168 34.48747961
32 1 1 0.0 25.8965455 -0.17671912 7.77852894
33 1 1 0.0 9.56642847 28.81630165 8.48258922
34 1 1 0.0 34.55965462 25.71186395 21.69664732
35 1 1 0.0 9.68549366 38.33790706 17.20472178
36 1 1 0.0 19.60669533 21.70303746 19.42139396
37 1 1 0.0 14.03608027 0.9232538 35.62453831
38 1 1 0.0 32.84337044 12.89275637 16.0915952
39 1 1 0.0 23.08078464 36.57830906 28.68104291
40 1 1 0.0 39.13831087 6.2396393 22.10464982
41 1 1 0.0 26.8618616 14.25057475 11.02021424
42 1 1 0.0 35.18756187 19.92909391 19.11974872
43 1 1 0.0 30.3639327 34.94092286 12.93178853
44 1 1 0.0 2.77063466 18.10724642 22.63778994
45 1 1 0.0 2.56868251 33.75930575 14.05093903
46 1 1 0.0 9.5841549 23.79098678 4.576905
47 1 1 0.0 24.26767761 28.45927342 39.38742399
48 1 1 0.0 11.59324158 16.37088792 3.96828733
49 1 1 0.0 29.31879005 25.82590808 12.38128871
50 1 1 0.0 4.48166839 3.20277791 1.14730984
51 1 1 0.0 33.61537576 25.28391429 5.80252634
52 1 1 0.0 21.4324387 36.42846247 14.43263463
53 1 1 0.0 13.95383981 34.31776619 0.9300721
54 1 1 0.0 28.39810374 24.29825768 35.69547237
55 1 1 0.0 8.50819149 29.32803971 31.17542958
56 1 1 0.0 30.80125209 14.23560025 38.14518532
57 1 1 0.0 35.78956725 14.36442878 0.53765974
58 1 1 0.0 38.75963617 36.83317581 22.81054633
59 1 1 0.0 13.54076346 28.02654966 29.31985614
60 1 1 0.0 5.33452099 4.68529432 30.21724351
61 1 1 0.0 27.88503723 2.80250718 33.8639784
62 1 1 0.0 38.93351206 14.02868035 15.88571865
63 1 1 0.0 28.93087739 14.22376015 3.30792949
64 1 1 0.0 15.55444829 10.50940527 33.64373511
65 1 1 0.0 37.41591556 3.06510337 34.61899769
66 1 1 0.0 14.48099587 22.15214479 4.38920573
67 1 1 0.0 21.28881656 13.5371999 31.20746497
68 1 1 0.0 35.2717131 1.31359594 1.18808834
69 1 1 0.0 5.58791009 24.62947325 14.65884183
70 1 1 0.0 16.54623636 5.32132791 0.30040583
71 1 1 0.0 7.67928676 5.58761329 0.2385687
72 1 1 0.0 16.48071541 35.38943656 13.24440621
73 1 1 0.0 25.6146271 33.26418534 36.80526176
74 1 1 0.0 11.03754869 17.73850673 37.56132383
75 1 1 0.0 24.25539865 6.96085624 14.25334023
76 1 1 0.0 3.04928889 5.05483298 19.54638269
77 1 1 0.0 35.74639324 2.78960072 12.5449494
78 1 1 0.0 28.47270223 2.71340167 10.42647282
79 1 1 0.0 15.04117177 2.26110264 14.07181456
80 1 1 0.0 34.61414062 24.32422051 28.06858653
81 1 1 0.0 22.81004777 22.99807412 29.57072252
82 1 1 0.0 14.03541697 25.4627403 24.01184281
83 1 1 0.0 11.12283453 4.3319065 6.79322898
84 1 1 0.0 10.17221101 6.92344333 25.23491221
85 1 1 0.0 38.33577045 13.82880527 33.00079967
86 1 1 0.0 38.48662304 6.71861785 28.92653648
87 1 1 0.0 22.81883848 31.2820234 33.74227376
88 1 1 0.0 32.33176642 5.7728029 15.26891738
89 1 1 0.0 5.91464772 24.28641119 24.22416314
90 1 1 0.0 24.66674967 2.84184663 28.73006099
91 1 1 0.0 7.29785771 35.10016984 36.42946878
92 1 1 0.0 6.90310929 27.23804975 9.55674156
93 1 1 0.0 21.9866772 16.37157518 34.96326942
94 1 1 0.0 16.30932614 23.96150639 11.85578082
95 1 1 0.0 21.03641399 24.28686851 11.46287287
96 1 1 0.0 21.29945951 7.77269219 9.8602645
97 1 1 0.0 25.02770429 7.4261232 36.03333008
98 1 1 0.0 15.45167391 13.14005951 14.59060664
99 1 1 0.0 38.19957695 38.42672801 2.36699049
100 1 1 0.0 22.99631606 34.83031183 1.86158846
101 1 1 0.0 33.74822371 2.18721725 22.70488972
102 1 1 0.0 26.35139397 14.16052277 29.14559867
103 1 1 0.0 2.4248461 35.44381858 1.12599764
104 1 1 0.0 28.95326376 11.15021136 5.15631638
105 1 1 0.0 7.91305412 9.92502213 6.7478899
106 1 1 0.0 18.82819576 19.20756407 24.62468704
107 1 1 0.0 33.81670376 27.06050941 32.35920121
108 1 1 0.0 36.40303438 26.13101346 3.5404424
109 1 1 0.0 22.94815203 15.01234304 23.768886
110 1 1 0.0 23.84827109 6.19302099 1.04436237
111 1 1 0.0 17.3510599 0.43475551 2.36352938
112 1 1 0.0 27.61034098 21.22248584 1.72279262
113 1 1 0.0 34.33368866 22.40249685 31.61461046
114 1 1 0.0 18.39387292 33.21401536 28.04274035
115 1 1 0.0 28.13651345 20.73975993 34.52858699
116 1 1 0.0 24.30236494 36.74489362 9.75428747
117 1 1 0.0 31.64007715 17.80493469 10.79212688
118 1 1 0.0 1.97122509 20.03642709 37.24635195
119 1 1 0.0 27.81011852 7.12515308 26.11308127
120 1 1 0.0 25.90031808 19.43953996 24.09360848
121 1 1 0.0 16.51067377 32.0547043 4.21977966
122 1 1 0.0 29.60229959 31.94680882 27.31895331
123 1 1 0.0 17.61872058 32.91378872 36.44195508
124 1 1 0.0 12.22112897 32.45301778 18.01804311
125 1 1 0.0 4.48431646 27.44485785 23.60615666
126 1 1 0.0 27.29680719 21.29546525 13.26337021
127 1 1 0.0 18.43558716 31.31829892 14.38310459
128 1 1 0.0 34.08962158 34.31144851 30.67312858
129 1 1 0.0 17.01010512 6.51917135 28.50775618
130 1 1 0.0 33.97025943 5.8282609 34.32145019
131 1 1 0.0 30.66922867 37.9013392 20.43097952
132 1 1 0.0 5.11584262 26.20170354 31.49381445
133 1 1 0.0 27.86448167 31.38371582 9.12454851
134 1 1 0.0 10.83023409 29.58327399 40.15034569
135 1 1 0.0 13.07708245 31.22901231 29.43548296
136 1 1 0.0 31.89152679 12.00259961 21.14089996
137 1 1 0.0 21.38616946 31.60246283 17.37085263
138 1 1 0.0 10.75556008 7.70185015 12.20614361
139 1 1 0.0 34.16541005 33.56862513 20.7518995
140 1 1 0.0 33.76017498 19.39628705 37.44196957
141 1 1 0.0 11.09279062 0.70695412 18.01458691
142 1 1 0.0 16.77624063 31.81287428 23.45040728
143 1 1 0.0 1.6705774 5.03908934 12.1828982
144 1 1 0.0 1.77901233 9.97725366 2.35214541
145 1 1 0.0 29.27836037 38.94648183 5.65983499
146 1 1 0.0 14.15904814 35.97872032 27.22108701
147 1 1 0.0 4.97325112 37.0940647 3.0616163
148 1 1 0.0 7.73221779 17.83041076 4.9693408
149 1 1 0.0 13.2658939 11.33023472 7.35191263
150 1 1 0.0 38.12414368 21.90304465 15.416171
151 1 1 0.0 22.3202768 8.44831884 38.9478943
152 1 1 0.0 34.09286448 37.82553152 5.13084477
153 1 1 0.0 16.58882215 20.82632862 20.61254181
154 1 1 0.0 4.59471516 32.59351977 18.34400634
155 1 1 0.0 17.02964555 17.06255288 4.13974646
156 1 1 0.0 30.04500973 36.66983418 26.82130882
157 1 1 0.0 22.4395741 0.32222259 18.32538139
158 1 1 0.0 11.15449475 18.8005237 24.02756741
159 1 1 0.0 2.1220822 1.00242504 13.60960647
160 1 1 0.0 2.57007884 19.874219 27.20402176
161 1 1 0.0 38.47571371 35.79516295 17.65914627
162 1 1 0.0 29.33559546 0.43727422 17.72724623
163 1 1 0.0 36.80163502 32.26604282 39.71431572
164 1 1 0.0 36.13982659 33.31495683 26.6138084
165 1 1 0.0 32.12534794 20.77533198 15.5311296
166 1 1 0.0 25.50573356 26.80505507 26.57121279
167 1 1 0.0 29.97215309 21.39251995 6.06726956
168 1 1 0.0 19.17866307 15.99617816 1.10899395
169 1 1 0.0 4.08137769 16.46864516 30.88851275
170 1 1 0.0 19.69848037 5.69790821 25.71315427
171 1 1 0.0 13.16115983 36.99433044 38.94161733
172 1 1 0.0 1.03954269 32.50489071 23.86345518
173 1 1 0.0 23.25097905 23.09333602 37.72756737
174 1 1 0.0 26.23619553 11.70735989 5.32964906
175 1 1 0.0 4.35959357 29.92679193 10.39821817
176 1 1 0.0 39.75667954 9.49264279 2.35040987
177 1 1 0.0 2.46504682 15.6674634 5.54232825
178 1 1 0.0 1.08765766 26.60954348 25.3788357
179 1 1 0.0 17.32568846 38.07635506 22.06323336
180 1 1 0.0 34.69385952 15.31282981 21.03893265
181 1 1 0.0 11.55549466 13.66949034 17.33532128
182 1 1 0.0 13.24726267 25.93211616 14.87678885
183 1 1 0.0 36.35280851 26.08822334 38.84292798
184 1 1 0.0 16.96103247 16.32302314 37.55610763
185 1 1 0.0 15.17828398 20.09422222 35.47840714
186 1 1 0.0 9.75074842 35.37584411 6.09712194
187 1 1 0.0 -0.25560477 36.91991592 34.3516043
188 1 1 0.0 3.66919497 27.8756701 37.71486725
189 1 1 0.0 1.89482972 38.49193989 14.08466777
190 1 1 0.0 29.32911598 16.36838594 22.90549036
191 1 1 0.0 12.74211651 12.63100948 39.51952789
192 1 1 0.0 19.92276275 11.83424592 20.1047363
193 1 1 0.0 35.93313582 19.09115153 29.2457571
194 1 1 0.0 15.61662706 5.88471328 38.41290451
195 1 1 0.0 17.72052149 13.55494231 26.93247061
196 1 1 0.0 24.81825218 14.73159181 38.53303325
197 1 1 0.0 3.43010694 12.9121985 37.842585
198 1 1 0.0 25.75414738 11.7472431 14.23417897
199 1 1 0.0 29.06048245 6.31694117 22.78080608
200 1 1 0.0 5.9323957 11.21462769 33.02583583
201 1 1 0.0 5.14082165 11.2282413 25.71745598
202 1 1 0.0 0.66160069 29.73127448 2.46825169
203 1 1 0.0 13.78883771 34.47435352 30.93947783
204 1 1 0.0 0.4618616 14.37316851 17.15284408
205 1 1 0.0 22.0863318 35.75481516 33.419666
206 1 1 0.0 17.67802335 25.51431976 6.70534021
207 1 1 0.0 5.26095573 36.04511567 8.70707406
208 1 1 0.0 36.93011123 11.02467352 34.57836256
209 1 1 0.0 10.87065852 36.35087964 33.84951802
210 1 1 0.0 36.2320062 4.95680641 37.98164542
211 1 1 0.0 4.76679914 0.97354101 32.62659134
212 1 1 0.0 21.78199407 26.64632992 14.33768599
213 1 1 0.0 5.08580414 3.12845772 39.01513847
214 1 1 0.0 23.15056951 27.53071997 30.93111812
215 1 1 0.0 -0.26313535 26.55619749 15.07967528
216 1 1 0.0 6.86088662 15.30131634 2.90719197
217 1 1 0.0 20.50968781 7.81870418 4.39670735
218 1 1 0.0 12.56487215 3.41272342 24.5657252
219 1 1 0.0 24.84636377 40.21281902 20.63183611
220 1 1 0.0 29.36608625 4.3562508 15.88341696
221 1 1 0.0 1.50382424 11.30732166 5.14860895
222 1 1 0.0 9.09625602 19.49006713 32.39869286
223 1 1 0.0 0.34454025 30.44514287 5.93440272
224 1 1 0.0 30.85979603 6.92486485 11.42410488
225 1 1 0.0 39.26972809 28.08764516 36.50540483
226 1 1 0.0 2.00718976 22.91217351 16.23970474
227 1 1 0.0 33.30602911 40.60538502 26.99987471
228 1 1 0.0 4.86176251 0.99586488 10.9258071
229 1 1 0.0 31.33170288 37.89009303 2.66114768
230 1 1 0.0 20.43274895 3.26578688 39.59181108
231 1 1 0.0 35.12634399 27.27233346 13.13328499
232 1 1 0.0 36.37005085 16.45470657 18.4153287
233 1 1 0.0 0.83188986 35.85453967 9.24624689
234 1 1 0.0 38.60300681 26.18055278 17.88449229
235 1 1 0.0 16.13680937 11.99205838 4.33916725
236 1 1 0.0 -0.04603842 8.04144095 25.3171362
237 1 1 0.0 24.88812379 0.47465311 0.42384659
238 1 1 0.0 36.70200177 31.59602406 18.92434129
239 1 1 0.0 34.97731629 34.19052642 1.93778359
240 1 1 0.0 34.98687086 14.63599658 38.29876733
241 1 1 0.0 27.42981336 38.16851386 39.45477611
242 1 1 0.0 23.45541779 1.46688767 24.57094282
243 1 1 0.0 17.31644038 12.68979872 11.04194861
244 1 1 0.0 27.67756315 30.64584111 20.39317791
245 1 1 0.0 13.10246804 1.88790391 9.21739364
246 1 1 0.0 23.97290098 21.04641251 27.46100508
247 1 1 0.0 25.29894208 28.21324366 0.63723825
248 1 1 0.0 16.22233136 16.32887618 30.68509308
249 1 1 0.0 2.06389014 40.03741984 28.21916274
250 1 1 0.0 6.70068692 30.89846524 27.66428761
251 1 1 0.0 13.61604464 22.1797379 28.75347879
252 1 1 0.0 27.79016272 35.69748441 -0.25817983
253 1 1 0.0 3.40577191 22.43419634 0.97375262
254 1 1 0.0 38.14008265 38.30577026 11.30694604
255 1 1 0.0 12.30097856 29.34158845 21.60284557
256 1 1 0.0 38.85929553 20.90636931 37.84068874
257 1 1 0.0 30.86917503 16.38657618 17.98048247
258 1 1 0.0 26.09371326 37.45833986 12.99141812
259 1 1 0.0 13.73927698 4.43198255 28.93520335
260 1 1 0.0 31.04289652 32.70990843 36.76193689
261 1 1 0.0 38.44223297 22.33929001 3.81046922
262 1 1 0.0 38.42382229 13.11390288 9.05620543
263 1 1 0.0 18.26945633 38.18133117 37.76662976
264 1 1 0.0 11.74295955 20.24503609 16.06059292
265 1 1 0.0 1.26100175 2.89334661 21.8446232
266 1 1 0.0 37.86686451 39.5762237 39.74008998
267 1 1 0.0 25.0976527 39.19923504 26.89822342
268 1 1 0.0 3.81793343 39.1196473 23.70038478
269 1 1 0.0 23.18294928 33.04524091 11.79343102
270 1 1 0.0 23.89132633 19.66949943 17.98781406
271 1 1 0.0 4.17746317 22.64681002 31.63994952
272 1 1 0.0 3.56191183 38.68372141 39.40489325
273 1 1 0.0 36.62007794 9.01499585 11.30268431
274 1 1 0.0 38.21811821 7.62043474 13.36888828
275 1 1 0.0 8.49887817 38.68068434 0.72533352
276 1 1 0.0 10.3730469 36.86517841 2.12503423
277 1 1 0.0 10.51426465 4.55110632 20.33319319
278 1 1 0.0 7.81236406 5.60949238 19.74388479
279 1 1 0.0 8.82010361 24.99997108 33.39939377
280 1 1 0.0 10.46540751 22.69781714 34.27162916
281 1 1 0.0 35.8355886 22.63043346 11.81824133
282 1 1 0.0 36.88663863 22.03855525 9.11403973
283 1 1 0.0 27.47457016 11.4119378 32.23879134
284 1 1 0.0 25.63078157 9.09599794 32.30660335
285 1 1 0.0 2.13113096 16.6196191 12.98536517
286 1 1 0.0 2.27559092 14.48198112 10.94150425
287 1 1 0.0 34.92308733 2.09402137 5.67403606
288 1 1 0.0 33.75295903 4.78693427 6.05711846
289 1 1 0.0 11.31036716 1.88225667 4.4372529
290 1 1 0.0 10.9507451 0.78196466 1.71186087
291 1 1 0.0 8.2104985 37.95954222 25.61475985
292 1 1 0.0 10.82153634 38.52888699 26.88993049
293 1 1 0.0 40.18733899 28.27953633 28.78149506
294 1 1 0.0 38.10611598 26.54091935 29.97038279
295 1 1 0.0 18.38148958 24.64819243 38.91056231
296 1 1 0.0 20.47712065 26.16555489 37.47053668
297 1 1 0.0 31.1015373 30.59703145 11.1407512
298 1 1 0.0 30.60405679 29.49899941 13.84529757
299 1 1 0.0 7.55467061 28.23463361 0.53092478
300 1 1 0.0 8.84881726 30.05930858 2.47089333
301 1 1 0.0 19.55264484 18.25158472 17.53687768
302 1 1 0.0 20.01930197 20.37657087 15.52829677
303 1 1 0.0 25.36971279 30.57843043 25.12387457
304 1 1 0.0 24.9720737 30.16732673 28.02914722
305 1 1 0.0 1.47593991 1.72809788 5.24869332
306 1 1 0.0 0.09934689 -0.12687858 7.10120143
307 1 1 0.0 32.67876053 7.84966933 28.24580056
308 1 1 0.0 32.16245189 4.95172128 27.92477907
309 1 1 0.0 30.35238984 10.43060999 0.09473391
310 1 1 0.0 30.27129082 7.68839615 1.20892353
311 1 1 0.0 32.3460404 23.63838947 37.84364111
312 1 1 0.0 30.26394947 22.82637064 39.78612794
313 1 1 0.0 38.35339296 2.96041293 4.5358582
314 1 1 0.0 39.8443448 0.8079772 5.91854229
315 1 1 0.0 38.35363109 18.56786291 1.56101276
316 1 1 0.0 40.55070239 17.77914496 3.38269714
317 1 1 0.0 12.82651926 39.43727552 1.13917494
318 1 1 0.0 15.61858866 38.88343443 1.95485916
319 1 1 0.0 21.54805129 1.80830773 35.78518653
320 1 1 0.0 23.30965457 -0.43210371 34.98204099
321 1 1 0.0 19.34954458 11.8922949 2.96761879
322 1 1 0.0 20.7849574 12.01759131 5.55443597
323 1 1 0.0 37.20695075 2.17395746 20.84605062
324 1 1 0.0 39.48733036 1.93975865 18.9718169
325 1 1 0.0 12.09645865 38.90678979 9.13023278
326 1 1 0.0 12.62907456 39.76375291 6.34641045
327 1 1 0.0 2.72158441 -0.39609631 38.34733143
328 1 1 0.0 2.09345402 1.96412866 36.67325778
329 1 1 0.0 15.29415195 33.40019334 18.44199796
330 1 1 0.0 13.55683883 33.99517293 20.76481407
331 1 1 0.0 38.5477406 35.08195882 36.79029658
332 1 1 0.0 40.21000613 33.66606131 34.79033662
333 1 1 0.0 30.75469437 22.83901125 25.2538275
334 1 1 0.0 29.6226324 25.49236547 25.92156948
335 1 1 0.0 8.95755626 22.86415251 38.71859666
336 1 1 0.0 11.88754352 23.27145596 38.84902229
337 1 1 0.0 1.42720927 9.78207529 37.32313795
338 1 1 0.0 2.240044 8.79970807 39.99558751
339 1 1 0.0 8.48905859 29.78723233 18.67575661
340 1 1 0.0 9.3830329 28.54336045 16.14172328
341 1 1 0.0 32.15889112 23.34898378 4.02794471
342 1 1 0.0 32.41490499 25.57937535 2.09726022
343 1 1 0.0 34.84690953 3.08309281 31.82721752
344 1 1 0.0 34.79672926 0.995064 29.72832497
345 1 1 0.0 14.44306083 26.49249368 7.43141526
346 1 1 0.0 13.39363023 29.22232031 6.96830161
347 1 1 0.0 14.46464805 16.82594345 8.06039372
348 1 1 0.0 13.30353877 15.2007753 10.24634568
349 1 1 0.0 17.56805139 40.27223196 17.05699705
350 1 1 0.0 15.27212256 38.4095699 17.22111027
351 1 1 0.0 8.12163737 20.28438068 9.9556088
352 1 1 0.0 7.01216552 18.55640572 12.0888943
353 1 1 0.0 19.59681106 0.00436903 22.71984576
354 1 1 0.0 18.59378416 2.23521582 24.38867526
355 1 1 0.0 23.33659178 23.16165178 34.99815578
356 1 1 0.0 22.66222845 20.78942095 33.35941015
357 1 1 0.0 23.85615559 18.32221368 6.34554149
358 1 1 0.0 21.34822471 19.85685384 6.69610467
359 1 1 0.0 2.01400718 39.82269607 9.83261347
360 1 1 0.0 -0.29637298 38.66149547 8.38987684
361 1 1 0.0 27.83490622 0.52381825 26.10888149
362 1 1 0.0 29.82716876 0.57469002 28.29886648
363 1 1 0.0 7.06344882 10.25403361 -0.68544664
364 1 1 0.0 6.11157109 9.82893203 2.08600599
365 1 1 0.0 38.73601381 0.49134808 27.10843263
366 1 1 0.0 40.12509859 2.00508862 24.97611808
367 1 1 0.0 19.40726418 25.760033 24.03193162
368 1 1 0.0 19.77601459 22.94122058 24.86021417
369 1 1 0.0 2.21769955 19.43227475 16.45046766
370 1 1 0.0 0.45707174 20.67042704 14.41702208
371 1 1 0.0 12.12302539 11.20532192 29.76793861
372 1 1 0.0 9.21765956 10.69698869 29.50682753
373 1 1 0.0 30.76114094 32.52676246 17.72519548
374 1 1 0.0 28.88569452 32.6123925 15.43541372
375 1 1 0.0 9.32356685 39.41649501 40.42639643
376 1 1 0.0 7.96921247 39.48391049 37.79411384
377 1 1 0.0 2.00529268 11.22524842 29.7691782
378 1 1 0.0 -0.65987051 10.0479724 30.29705947
379 1 1 0.0 -0.53337611 37.66531159 2.56484462
380 1 1 0.0 2.13924778 38.72395096 3.27484216
381 1 1 0.0 3.04697689 28.62338249 17.52349155
382 1 1 0.0 5.13071763 29.5522773 15.63592401
383 1 1 0.0 9.39684371 9.15837391 37.68997308
384 1 1 0.0 10.54667724 7.19163356 39.58141366
385 1 1 0.0 24.93064059 22.97396094 8.69817289
386 1 1 0.0 27.16341975 23.39980815 6.80052075
387 1 1 0.0 35.94368731 31.93375291 12.26571551
388 1 1 0.0 38.26410259 32.38437421 14.04906788
389 1 1 0.0 1.38947701 24.98587121 37.01086615
390 1 1 0.0 0.1859727 26.61476134 39.17096489
391 1 1 0.0 1.79031742 33.82878438 40.26635907
392 1 1 0.0 -0.22469023 33.82564911 38.09668937
393 1 1 0.0 34.25349155 36.5421187 40.37626376
394 1 1 0.0 35.15578781 38.2412805 38.12538773
395 1 1 0.0 2.3525181 4.20570188 33.41986737
396 1 1 0.0 1.2762182 6.26948867 31.58954093
397 1 1 0.0 8.98481964 15.82214785 35.21486507
398 1 1 0.0 10.70089469 14.3273651 33.3205464
399 1 1 0.0 14.18897699 31.02513635 10.41753836
400 1 1 0.0 12.30130773 32.72531524 11.93866582
401 1 1 0.0 8.57639834 25.05404365 27.93720569
402 1 1 0.0 8.67945029 22.87085026 29.93489916
403 1 1 0.0 26.42618884 34.28467258 27.04424079
404 1 1 0.0 28.0776261 34.3805352 24.58837076
405 1 1 0.0 39.57272803 9.7358159 25.17403272
406 1 1 0.0 37.75830712 10.10666004 22.86360339
407 1 1 0.0 30.79030119 8.60770634 36.98412634
408 1 1 0.0 32.01747563 9.12744681 39.62829824
409 1 1 0.0 25.29105377 33.10303334 31.3017
410 1 1 0.0 26.86252715 30.68985664 31.99074417
411 1 1 0.0 38.62899157 15.59124389 7.07365816
412 1 1 0.0 39.54006393 12.96947998 6.04213821
413 1 1 0.0 10.46040067 14.39160169 26.96386877
414 1 1 0.0 12.42276546 15.13758194 24.87571883
415 1 1 0.0 31.38523503 15.35551285 30.39755006
416 1 1 0.0 28.85682192 16.89549611 30.45509127
417 1 1 0.0 23.00794183 8.27116279 17.63679944
418 1 1 0.0 20.33956974 7.98437335 16.38569015
419 1 1 0.0 28.41301405 19.33966814 19.80912626
420 1 1 0.0 29.90302213 21.14469433 21.62282101
421 1 1 0.0 23.19461663 6.80854914 20.52655801
422 1 1 0.0 22.01824316 4.95669496 18.53796208
423 1 1 0.0 9.83053296 21.74711811 20.86072297
424 1 1 0.0 10.26848399 24.43403668 19.6960772
425 1 1 0.0 5.98922221 8.25538888 20.54951465
426 1 1 0.0 3.87184736 10.20724653 19.86052428
427 1 1 0.0 4.336046 40.78148124 15.14825831
428 1 1 0.0 5.55852124 38.2529136 16.08614545
429 1 1 0.0 40.60952372 39.06013762 15.80833852
430 1 1 0.0 37.75041387 39.75341649 16.14387919
431 1 1 0.0 20.00948349 10.16711254 11.94296793
432 1 1 0.0 18.30869978 10.57245258 9.55324692
433 1 1 0.0 25.9674722 1.12876407 12.425522
434 1 1 0.0 23.46434665 1.21690196 14.00486567
435 1 1 0.0 33.79488418 17.20454622 34.5230812
436 1 1 0.0 36.33093247 17.1621816 32.99520798
437 1 1 0.0 24.82331972 30.60736621 8.82467214
438 1 1 0.0 26.23435816 28.21519899 7.79791084
439 1 1 0.0 38.06998884 0.51207048 14.69213793
440 1 1 0.0 40.67392008 1.10666342 13.41396203
441 1 1 0.0 29.03902505 10.10430928 18.061986
442 1 1 0.0 27.35128035 8.39289104 19.79123372
443 1 1 0.0 1.46011393 32.98586078 29.03417487
444 1 1 0.0 0.50132245 30.98730885 30.99739706
445 1 1 0.0 30.35271534 28.26307625 33.14976052
446 1 1 0.0 29.01991028 26.94290582 30.85879718
447 1 1 0.0 38.35515693 29.04314507 23.18511835
448 1 1 0.0 39.62122681 26.61249871 24.30617038
449 1 1 0.0 32.71264934 29.64964153 2.57553357
450 1 1 0.0 33.37177748 27.92606997 0.25980831
451 1 1 0.0 17.91766497 14.28971967 22.15974927
452 1 1 0.0 18.3765892 12.35396516 24.35291486
453 1 1 0.0 37.7389853 20.99136496 28.18742191
454 1 1 0.0 38.85475424 19.44525027 25.9219592
455 1 1 0.0 16.03925448 19.19844169 14.17768312
456 1 1 0.0 17.27233461 19.38932802 11.49238834
457 1 1 0.0 3.60108315 24.0861068 6.08606616
458 1 1 0.0 5.13178968 21.74883266 7.06679007
459 1 1 0.0 26.61817284 27.30961511 14.32622493
460 1 1 0.0 26.06909001 24.68462489 15.58148055
461 1 1 0.0 4.02991088 40.64426382 35.33960658
462 1 1 0.0 3.71993711 38.31795969 33.5340713
463 1 1 0.0 8.1440048 20.08456141 0.22075059
464 1 1 0.0 7.00006531 22.40007601 1.66903469
465 1 1 0.0 31.99735305 1.74386714 37.44341187
466 1 1 0.0 32.43024427 -0.46843682 39.36332037
467 1 1 0.0 1.76010827 16.36229891 38.94992148
468 1 1 0.0 -0.24081236 16.34103038 36.76735497
469 1 1 0.0 39.49857028 7.91724358 35.62065988
470 1 1 0.0 37.68201452 7.38252247 33.34427442
471 1 1 0.0 21.98338766 30.90889119 27.54108971
472 1 1 0.0 20.8396366 32.07886256 25.07314871
473 1 1 0.0 19.62694222 28.84501369 38.60948609
474 1 1 0.0 20.51013132 31.33908103 39.93889852
475 1 1 0.0 1.37094379 35.39400644 19.40589336
476 1 1 0.0 1.8104993 38.27994709 19.90174594
477 1 1 0.0 5.11657621 15.94965941 22.33142958
478 1 1 0.0 6.849374 14.38321112 24.1511504
479 1 1 0.0 16.41624491 5.99726881 34.69018956
480 1 1 0.0 17.89446727 4.00001051 33.07973924
481 1 1 0.0 11.33425565 7.72856635 18.53836866
482 1 1 0.0 13.25583268 8.51515267 20.64942432
483 1 1 0.0 31.88044545 9.85427143 32.74855376
484 1 1 0.0 33.28494123 12.32736087 31.92456799
485 1 1 0.0 38.95163254 3.09753298 -0.10029887
486 1 1 0.0 39.77444438 0.91301461 1.72140156
487 1 1 0.0 7.83602705 4.17092365 26.62365804
488 1 1 0.0 6.09205115 5.88333477 24.95215319
489 1 1 0.0 33.374945 39.92389368 34.39500139
490 1 1 0.0 32.21503015 38.37545389 32.15342515
491 1 1 0.0 1.03423946 10.41406497 9.74751903
492 1 1 0.0 3.24666828 11.78304423 8.33373447
493 1 1 0.0 16.37065888 28.79754198 2.04287441
494 1 1 0.0 15.15939854 27.08587382 -0.04776491
495 1 1 0.0 14.46676035 5.19090916 8.79933999
496 1 1 0.0 13.86286332 7.16392838 6.67560841
497 1 1 0.0 29.15699556 0.81169721 -0.1838616
498 1 1 0.0 30.56796347 0.09352861 2.31836455
499 1 1 0.0 7.90285376 38.35780315 10.96981788
500 1 1 0.0 7.44104123 40.07260298 8.60044603
501 1 1 0.0 20.71700802 37.07600325 20.26777183
502 1 1 0.0 20.45853817 36.98288871 23.21603493
503 1 1 0.0 22.1441443 19.31958583 39.07937886
504 1 1 0.0 24.99943417 19.51101638 39.83990916
505 1 1 0.0 1.53699212 1.04423981 0.60485797
506 1 1 0.0 -0.20445048 3.43879313 0.56986793
507 1 1 0.0 2.37674 5.17343313 6.33363682
508 1 1 0.0 -0.41500486 5.75553779 7.13053522
509 1 1 0.0 19.18850559 34.32437002 2.50577557
510 1 1 0.0 19.58654355 35.74411496 -0.0620294
511 1 1 0.0 14.08389777 19.10837039 22.37800615
512 1 1 0.0 14.81301699 21.96227292 22.68026067
513 1 1 0.0 7.49675109 13.6260718 9.86907445
514 1 1 0.0 7.17623348 11.01271343 11.22382858
515 1 1 0.0 24.04893142 9.26739483 21.96713534
516 1 1 0.0 22.61183122 8.61532705 24.47258598
517 1 1 0.0 10.92347133 10.30344371 1.54701055
518 1 1 0.0 11.11293495 12.84929591 0.04685309
519 1 1 0.0 23.17893166 25.88578567 5.7361382
520 1 1 0.0 25.5244691 26.0844526 3.93983148
521 1 1 0.0 31.0877701 13.78370537 0.74296747
522 1 1 0.0 33.68302168 12.36134496 0.64657022
523 1 1 0.0 40.05770664 6.93901717 6.74108194
524 1 1 0.0 38.5019336 6.30336537 9.17895997
525 1 1 0.0 18.7026482 1.50864132 30.15321411
526 1 1 0.0 20.33584229 -0.4119339 31.70621126
527 1 1 0.0 10.31373328 32.08666702 24.14910247
528 1 1 0.0 10.41289676 29.62078204 25.78535128
529 1 1 0.0 17.12417463 -0.57029658 15.85665096
530 1 1 0.0 18.80704904 1.7627434 15.15480309
531 1 1 0.0 29.77718892 18.64708427 0.74232806
532 1 1 0.0 31.92833835 19.5361656 2.57258017
533 1 1 0.0 9.58086094 4.25439632 30.79561927
534 1 1 0.0 7.49542458 3.42160636 32.72568361
535 1 1 0.0 29.58741183 20.56550267 30.12514694
536 1 1 0.0 30.86670546 22.26614473 32.18401961
537 1 1 0.0 2.0393466 12.97189136 20.98495179
538 1 1 0.0 -0.19738097 12.76912035 22.91463205
539 1 1 0.0 23.51841555 1.50786132 38.40367519
540 1 1 0.0 23.41027409 4.24679388 39.52362435
541 1 1 0.0 38.94352164 15.41638665 27.58791189
542 1 1 0.0 39.94025978 15.56925805 24.80387244
543 1 1 0.0 15.80785857 38.1611158 13.48764304
544 1 1 0.0 15.46137173 40.26851475 11.43665576
545 1 2 0.0 25.55773861 6.70939763 8.01606144
546 1 2 0.0 25.21902219 9.13607175 7.02698038
547 1 2 0.0 25.50538827 7.09119599 5.34874175
548 1 2 0.0 20.95397193 5.70596356 6.55891782
549 1 2 0.0 23.4660539 4.6229062 7.51179051
550 1 2 0.0 23.27275671 5.403987 4.80389609
551 1 2 0.0 23.26268635 7.3382801 6.77548885
552 1 2 0.0 27.15027212 -0.21829535 37.00468142
553 1 2 0.0 28.94121836 1.0431699 35.52719219
554 1 2 0.0 27.12640779 2.47205987 36.84807953
555 1 2 0.0 29.57911123 1.42590201 40.96980069
556 1 2 0.0 27.1517727 0.19903069 39.97262976
557 1 2 0.0 27.49842524 2.98138647 39.62843276
558 1 2 0.0 29.07502584 1.23139621 38.18599251
559 1 2 0.0 9.10131693 10.70270123 20.60737227
560 1 2 0.0 8.28466786 10.4707148 23.1095761
561 1 2 0.0 9.26268949 12.80442433 22.28660536
562 1 2 0.0 5.09204996 13.45332156 19.77991749
563 1 2 0.0 7.66793143 12.59095915 18.77358694
564 1 2 0.0 7.59893677 14.56964636 20.78857574
565 1 2 0.0 6.8804085 11.97651114 21.41158147
566 1 2 0.0 5.20571982 9.8807951 14.1555359
567 1 2 0.0 4.69575229 10.09619003 16.73919524
568 1 2 0.0 7.17275913 10.54130615 15.87529937
569 1 2 0.0 5.56342168 14.79835101 14.03508532
570 1 2 0.0 6.05804932 12.3147799 12.62840362
571 1 2 0.0 7.81693196 13.06176987 14.70890381
572 1 2 0.0 5.23637561 12.29513399 15.32677724
573 1 2 0.0 19.21198751 21.91974705 2.90309867
574 1 2 0.0 19.58983415 21.70836095 0.29650985
575 1 2 0.0 18.73655112 24.02497971 1.28907868
576 1 2 0.0 23.26664631 24.72403087 3.04644907
577 1 2 0.0 20.91361166 23.82157427 4.47485217
578 1 2 0.0 20.60908589 25.80826019 2.48978634
579 1 2 0.0 21.2445627 23.22784137 1.737206
580 1 2 0.0 39.54668376 37.65621209 32.78617978
581 1 2 0.0 37.85268053 37.08877793 34.73300514
582 1 2 0.0 37.79373449 39.51533304 33.64288452
583 1 2 0.0 35.71213026 37.48187983 29.6893067
584 1 2 0.0 38.47810642 38.2623209 30.05238111
585 1 2 0.0 36.45714273 39.89998063 31.15416129
586 1 2 0.0 36.9289063 37.40879755 32.24970465
587 1 2 0.0 19.44747457 3.9775799 20.22917189
588 1 2 0.0 19.68284944 6.12218022 21.75463758
589 1 2 0.0 19.30546352 6.43850322 19.13977106
590 1 2 0.0 14.64914226 5.04800024 19.835443
591 1 2 0.0 16.85379031 3.46958779 18.81579772
592 1 2 0.0 16.67721633 6.18690806 18.06404284
593 1 2 0.0 17.31281813 5.54207452 20.67344302
594 1 2 0.0 25.93867348 13.93984435 18.99796285
595 1 2 0.0 25.93372314 11.43767098 18.14892731
596 1 2 0.0 28.0276044 12.32287533 19.53170779
597 1 2 0.0 25.2021499 12.17292889 23.54332949
598 1 2 0.0 25.91904764 14.48066308 21.94584523
599 1 2 0.0 27.8643931 12.47751342 22.37382386
600 1 2 0.0 25.69018611 11.93135475 20.76034814
601 1 2 0.0 32.64607099 36.26261119 36.13988526
602 1 2 0.0 31.04938221 36.47623066 38.23433247
603 1 2 0.0 31.48552816 38.62357077 36.72479132
604 1 2 0.0 28.61933418 36.57066925 33.30875368
605 1 2 0.0 31.51335853 36.66468296 33.3943104
606 1 2 0.0 30.06231939 38.92366591 34.27273211
607 1 2 0.0 30.00945011 36.60983622 35.78010275
608 1 2 0.0 8.09351534 0.86767925 14.93128131
609 1 2 0.0 6.37018514 -0.06885373 13.16074567
610 1 2 0.0 6.16309489 2.46650879 13.94116724
611 1 2 0.0 10.1570756 3.42267954 11.2518102
612 1 2 0.0 9.97828107 3.05196961 14.11923798
613 1 2 0.0 7.89139322 4.42739417 12.80270861
614 1 2 0.0 8.19892561 1.71422769 12.38687121
615 1 2 0.0 16.52288457 10.80826128 21.31715529
616 1 2 0.0 16.03935744 10.46467432 23.89201586
617 1 2 0.0 15.56189936 12.84346004 22.79957841
618 1 2 0.0 11.63983117 10.846659 20.62496294
619 1 2 0.0 14.23817237 11.39866613 19.4693477
620 1 2 0.0 13.16122688 13.24598559 21.31535488
621 1 2 0.0 13.99160089 10.76741213 22.20749941
622 1 2 0.0 39.58218873 32.74035561 7.88580604
623 1 2 0.0 38.47862118 31.86764441 5.64923025